TITLE = "Visualization of the volumetric solution"
VARIABLES = "x","y","Conservative_1","Conservative_2","Conservative_3","Conservative_4","Conservative_5","Pressure","Temperature","Pressure_Coefficient","Mach","Laminar_Viscosity", "Skin_Friction_Coefficient", "Heat_Flux", "Y_Plus", "Eddy_Viscosity"
ZONE NODES= 3704, ELEMENTS= 3584, DATAPACKING=POINT, ZONETYPE=FEQUADRILATERAL
5.010000e+02	5.352203e-08	9.999976e-01	1.774675e-01	8.415809e-11	2.515754e+00	7.478737e-06	1.000003e+00	1.000001e+00	9.980364e-06	1.499874e-01	0.000000e+00	0.000000e+00	0.000000e+00	0.000000e+00	7.477339e-06	
3.278693e+02	5.352203e-08	9.999970e-01	1.772432e-01	1.228859e-10	2.515714e+00	1.106831e-05	1.000003e+00	1.000001e+00	1.416417e-05	1.497979e-01	0.000000e+00	0.000000e+00	0.000000e+00	0.000000e+00	1.106670e-05	
2.146849e+02	5.352203e-08	9.999957e-01	1.770406e-01	1.838255e-10	2.515678e+00	1.407638e-05	1.000003e+00	1.000003e+00	1.289322e-05	1.496268e-01	0.000000e+00	0.000000e+00	0.000000e+00	0.000000e+00	1.407454e-05	
1.406904e+02	5.352203e-08	9.999929e-01	1.767428e-01	2.896278e-10	2.515625e+00	1.719635e-05	1.000003e+00	1.000005e+00	9.405343e-06	1.493752e-01	0.000000e+00	0.000000e+00	0.000000e+00	0.000000e+00	1.719427e-05	
9.231638e+01	5.352203e-08	9.999867e-01	1.762581e-01	4.548907e-10	2.515540e+00	2.062472e-05	1.000003e+00	1.000012e+00	8.933093e-06	1.489661e-01	0.000000e+00	0.000000e+00	0.000000e+00	0.000000e+00	2.062231e-05	
6.069179e+01	5.352203e-08	9.999739e-01	1.755011e-01	7.064046e-10	2.515407e+00	2.386070e-05	1.000003e+00	1.000024e+00	1.261811e-05	1.483273e-01	0.000000e+00	0.000000e+00	0.000000e+00	0.000000e+00	2.385782e-05	
4.001717e+01	5.352203e-08	9.999491e-01	1.743693e-01	1.082784e-09	2.515210e+00	2.685778e-05	1.000003e+00	1.000049e+00	1.043349e-05	1.473725e-01	0.000000e+00	0.000000e+00	0.000000e+00	0.000000e+00	2.685414e-05	
2.650110e+01	5.352203e-08	9.999049e-01	1.727429e-01	1.629815e-09	2.514926e+00	2.923429e-05	1.000002e+00	1.000093e+00	-2.663073e-05	1.460012e-01	0.000000e+00	0.000000e+00	0.000000e+00	0.000000e+00	2.922942e-05	
1.766495e+01	5.352203e-08	9.998321e-01	1.705066e-01	2.423066e-09	2.514538e+00	3.091863e-05	9.999999e-01	1.000164e+00	-1.582122e-04	1.441165e-01	0.000000e+00	0.000000e+00	0.000000e+00	0.000000e+00	3.091158e-05	
1.188831e+01	5.352203e-08	9.997212e-01	1.676025e-01	3.577101e-09	2.514040e+00	3.130377e-05	9.999962e-01	1.000271e+00	-3.916643e-04	1.416700e-01	0.000000e+00	0.000000e+00	0.000000e+00	0.000000e+00	3.129366e-05	
8.111817e+00	5.352203e-08	9.995734e-01	1.640843e-01	5.216946e-09	2.513450e+00	3.094729e-05	9.999931e-01	1.000416e+00	-5.877590e-04	1.387066e-01	0.000000e+00	0.000000e+00	0.000000e+00	0.000000e+00	3.093310e-05	
5.642931e+00	5.352203e-08	9.994006e-01	1.601262e-01	7.645297e-09	2.512816e+00	2.969937e-05	9.999951e-01	1.000591e+00	-4.659258e-04	1.353722e-01	0.000000e+00	0.000000e+00	0.000000e+00	0.000000e+00	2.968084e-05	
4.028892e+00	5.352203e-08	9.992230e-01	1.559175e-01	1.094775e-08	2.512184e+00	2.825203e-05	1.000008e+00	1.000781e+00	3.436221e-04	1.318251e-01	0.000000e+00	0.000000e+00	0.000000e+00	0.000000e+00	2.822958e-05	
2.973712e+00	5.352203e-08	9.990589e-01	1.514768e-01	1.541935e-08	2.511582e+00	2.650646e-05	1.000039e+00	1.000977e+00	2.345448e-03	1.280790e-01	0.000000e+00	0.000000e+00	0.000000e+00	0.000000e+00	2.648125e-05	
2.283886e+00	5.352203e-08	9.989077e-01	1.466144e-01	2.081370e-08	2.511011e+00	2.436902e-05	1.000101e+00	1.001190e+00	6.235745e-03	1.239733e-01	0.000000e+00	0.000000e+00	0.000000e+00	0.000000e+00	2.434233e-05	
1.832911e+00	5.352203e-08	9.987811e-01	1.410329e-01	2.733444e-08	2.510486e+00	2.214958e-05	1.000212e+00	1.001428e+00	1.328064e-02	1.192546e-01	0.000000e+00	0.000000e+00	0.000000e+00	0.000000e+00	2.212257e-05	
1.538086e+00	5.352203e-08	9.986977e-01	1.344221e-01	3.450140e-08	2.510043e+00	1.984613e-05	1.000398e+00	1.001699e+00	2.514488e-02	1.136588e-01	0.000000e+00	0.000000e+00	0.000000e+00	0.000000e+00	1.982026e-05	
1.345344e+00	5.352203e-08	9.986619e-01	1.266222e-01	4.360900e-08	2.509670e+00	1.754441e-05	1.000657e+00	1.001994e+00	4.157359e-02	1.070518e-01	0.000000e+00	0.000000e+00	0.000000e+00	0.000000e+00	1.752091e-05	
1.219338e+00	5.352203e-08	9.986852e-01	1.176796e-01	5.388077e-08	2.509408e+00	1.523340e-05	1.000990e+00	1.002303e+00	6.269190e-02	9.947368e-02	0.000000e+00	0.000000e+00	0.000000e+00	0.000000e+00	1.521333e-05	
1.136961e+00	5.352203e-08	9.987811e-01	1.077667e-01	6.455383e-08	2.509322e+00	1.298646e-05	1.001403e+00	1.002621e+00	8.895301e-02	9.107114e-02	0.000000e+00	0.000000e+00	0.000000e+00	0.000000e+00	1.297057e-05	
1.083108e+00	5.352203e-08	9.989157e-01	9.718088e-02	7.377858e-08	2.509335e+00	1.083354e-05	1.001843e+00	1.002926e+00	1.168626e-01	8.210178e-02	0.000000e+00	0.000000e+00	0.000000e+00	0.000000e+00	1.082172e-05	
1.047901e+00	5.352203e-08	9.990253e-01	8.609001e-02	8.157611e-08	2.509266e+00	8.758670e-06	1.002223e+00	1.003196e+00	1.409664e-01	7.271406e-02	0.000000e+00	0.000000e+00	0.000000e+00	0.000000e+00	8.750011e-06	
1.024884e+00	5.352203e-08	9.990548e-01	7.357374e-02	9.299467e-08	2.508928e+00	6.592867e-06	1.002488e+00	1.003432e+00	1.577902e-01	6.213334e-02	0.000000e+00	0.000000e+00	0.000000e+00	0.000000e+00	6.586421e-06	
1.009837e+00	5.352203e-08	9.991741e-01	5.302399e-02	1.041539e-07	2.508899e+00	3.998243e-06	1.002997e+00	1.003822e+00	1.901325e-01	4.476494e-02	0.000000e+00	0.000000e+00	0.000000e+00	0.000000e+00	3.994356e-06	
1.000000e+00	5.352203e-08	9.980462e-01	0.000000e+00	0.000000e+00	2.507663e+00	1.000000e-10	1.003065e+00	1.005024e+00	1.944589e-01	0.000000e+00	0.000000e+00	2.236490e-08	-1.083031e-08	6.211396e+00	1.058759e-20	
9.909241e-01	-1.280290e-03	9.987027e-01	0.000000e+00	0.000000e+00	2.507160e+00	1.000000e-10	1.002864e+00	1.004163e+00	1.816971e-01	0.000000e+00	0.000000e+00	1.323210e-03	-7.425093e-08	1.555698e+00	1.063648e-20	
9.789211e-01	-2.951446e-03	9.984073e-01	0.000000e+00	0.000000e+00	2.506770e+00	1.000000e-10	1.002708e+00	1.004303e+00	1.717863e-01	0.000000e+00	0.000000e+00	1.518982e-03	-8.450749e-08	1.597401e+00	1.062047e-20	
9.631568e-01	-5.108981e-03	9.979831e-01	0.000000e+00	0.000000e+00	2.505393e+00	1.000000e-10	1.002157e+00	1.004178e+00	1.368137e-01	0.000000e+00	0.000000e+00	1.544762e-03	-9.033262e-08	1.559269e+00	1.060547e-20	
9.426407e-01	-7.855481e-03	9.974661e-01	0.000000e+00	0.000000e+00	2.503958e+00	1.000000e-10	1.001583e+00	1.004123e+00	1.003804e-01	0.000000e+00	0.000000e+00	1.607499e-03	-9.729307e-08	1.551518e+00	1.058484e-20	
9.162555e-01	-1.128962e-02	9.968984e-01	0.000000e+00	0.000000e+00	2.502507e+00	1.000000e-10	1.001003e+00	1.004113e+00	6.350951e-02	0.000000e+00	0.000000e+00	1.718454e-03	-1.091547e-07	1.574203e+00	1.056103e-20	
8.828360e-01	-1.548810e-02	9.962704e-01	0.000000e+00	0.000000e+00	2.500965e+00	1.000000e-10	1.000386e+00	1.004127e+00	2.435764e-02	0.000000e+00	0.000000e+00	1.886082e-03	-1.298529e-07	1.625958e+00	1.053410e-20	
8.413160e-01	-2.048016e-02	9.956464e-01	0.000000e+00	0.000000e+00	2.499443e+00	1.000000e-10	9.997773e-01	1.004145e+00	-1.429443e-02	0.000000e+00	0.000000e+00	2.056829e-03	-1.538982e-07	1.680141e+00	1.050730e-20	
7.909518e-01	-2.621660e-02	9.950698e-01	0.000000e+00	0.000000e+00	2.498047e+00	1.000000e-10	9.992188e-01	1.004165e+00	-4.974902e-02	0.000000e+00	0.000000e+00	2.219028e-03	-1.785854e-07	1.731715e+00	1.048249e-20	
7.316032e-01	-3.253806e-02	9.944764e-01	0.000000e+00	0.000000e+00	2.496577e+00	1.000000e-10	9.986306e-01	1.004173e+00	-8.709511e-02	0.000000e+00	0.000000e+00	2.389508e-03	-2.064799e-07	1.787113e+00	1.045732e-20	
6.640066e-01	-3.915032e-02	9.938532e-01	0.000000e+00	0.000000e+00	2.495020e+00	1.000000e-10	9.980079e-01	1.004176e+00	-1.266337e-01	0.000000e+00	0.000000e+00	2.584133e-03	-2.409631e-07	1.851465e+00	1.043106e-20	
5.899328e-01	-4.561861e-02	9.931977e-01	0.000000e+00	0.000000e+00	2.493364e+00	1.000000e-10	9.973457e-01	1.004172e+00	-1.686758e-01	0.000000e+00	0.000000e+00	2.806322e-03	-2.838352e-07	1.924931e+00	1.040366e-20	
5.121166e-01	-5.139795e-02	9.925109e-01	0.000000e+00	0.000000e+00	2.491625e+00	1.000000e-10	9.966498e-01	1.004166e+00	-2.128618e-01	0.000000e+00	0.000000e+00	3.053973e-03	-3.360553e-07	2.005945e+00	1.037507e-20	
4.339121e-01	-5.591460e-02	9.918004e-01	0.000000e+00	0.000000e+00	2.489818e+00	1.000000e-10	9.959273e-01	1.004157e+00	-2.587334e-01	0.000000e+00	0.000000e+00	3.301231e-03	-3.929779e-07	2.085887e+00	1.034560e-20	
3.587470e-01	-5.869148e-02	9.911128e-01	0.000000e+00	0.000000e+00	2.488031e+00	1.000000e-10	9.952124e-01	1.004132e+00	-3.041246e-01	0.000000e+00	0.000000e+00	3.579462e-03	-4.628326e-07	2.175142e+00	1.031753e-20	
2.895540e-01	-5.947265e-02	9.904682e-01	0.000000e+00	0.000000e+00	2.486338e+00	1.000000e-10	9.945351e-01	1.004102e+00	-3.471295e-01	0.000000e+00	0.000000e+00	3.926977e-03	-5.598951e-07	2.284870e+00	1.029143e-20	
2.283666e-01	-5.828472e-02	9.899195e-01	0.000000e+00	0.000000e+00	2.484941e+00	1.000000e-10	9.939762e-01	1.004094e+00	-3.826135e-01	0.000000e+00	0.000000e+00	4.270321e-03	-6.652889e-07	2.393674e+00	1.026883e-20	
1.761797e-01	-5.540400e-02	9.895437e-01	0.000000e+00	0.000000e+00	2.483967e+00	1.000000e-10	9.935870e-01	1.004082e+00	-4.073283e-01	0.000000e+00	0.000000e+00	4.641402e-03	-7.915072e-07	2.512562e+00	1.025353e-20	
1.330575e-01	-5.125403e-02	9.893061e-01	0.000000e+00	0.000000e+00	2.483376e+00	1.000000e-10	9.933505e-01	1.004084e+00	-4.223434e-01	0.000000e+00	0.000000e+00	5.023967e-03	-9.366145e-07	2.639170e+00	1.024364e-20	
9.838552e-02	-4.628967e-02	9.893270e-01	0.000000e+00	0.000000e+00	2.483410e+00	1.000000e-10	9.933638e-01	1.004076e+00	-4.214943e-01	0.000000e+00	0.000000e+00	5.431587e-03	-1.109785e-06	2.780543e+00	1.024468e-20	
7.115831e-02	-4.091264e-02	9.895716e-01	0.000000e+00	0.000000e+00	2.483999e+00	1.000000e-10	9.935996e-01	1.004066e+00	-4.065259e-01	0.000000e+00	0.000000e+00	5.817891e-03	-1.296819e-06	2.929405e+00	1.025505e-20	
5.022241e-02	-3.543267e-02	9.901696e-01	0.000000e+00	0.000000e+00	2.485376e+00	1.000000e-10	9.941503e-01	1.004016e+00	-3.715614e-01	0.000000e+00	0.000000e+00	6.166879e-03	-1.493327e-06	3.088739e+00	1.028105e-20	
3.444509e-02	-3.006547e-02	9.912054e-01	0.000000e+00	0.000000e+00	2.487874e+00	1.000000e-10	9.951495e-01	1.003975e+00	-3.081190e-01	0.000000e+00	0.000000e+00	6.554185e-03	-1.742787e-06	3.286209e+00	1.032511e-20	
2.280944e-02	-2.495170e-02	9.927729e-01	0.000000e+00	0.000000e+00	2.491849e+00	1.000000e-10	9.967396e-01	1.003991e+00	-2.071637e-01	0.000000e+00	0.000000e+00	6.838233e-03	-1.979496e-06	3.497776e+00	1.039019e-20	
1.445220e-02	-2.018403e-02	9.951718e-01	0.000000e+00	0.000000e+00	2.497407e+00	1.000000e-10	9.989629e-01	1.003805e+00	-6.600180e-02	0.000000e+00	0.000000e+00	6.740425e-03	-2.037467e-06	3.663428e+00	1.049546e-20	
8.660978e-03	-1.583433e-02	9.979683e-01	0.000000e+00	0.000000e+00	2.504896e+00	1.000000e-10	1.001959e+00	1.003994e+00	1.241981e-01	0.000000e+00	0.000000e+00	6.629566e-03	-2.108407e-06	3.887298e+00	1.060933e-20	
4.844550e-03	-1.197282e-02	1.001618e+00	0.000000e+00	0.000000e+00	2.515646e+00	1.000000e-10	1.006259e+00	1.004629e+00	3.972154e-01	0.000000e+00	0.000000e+00	5.792515e-03	-1.769338e-06	3.953944e+00	1.074970e-20	
2.493434e-03	-8.666020e-03	1.005510e+00	0.000000e+00	0.000000e+00	2.526206e+00	1.000000e-10	1.010482e+00	1.004940e+00	6.653899e-01	0.000000e+00	0.000000e+00	4.763100e-03	-1.358909e-06	3.978405e+00	1.090999e-20	
1.159193e-03	-5.950300e-03	1.008505e+00	0.000000e+00	0.000000e+00	2.534508e+00	1.000000e-10	1.013803e+00	1.005249e+00	8.762317e-01	0.000000e+00	0.000000e+00	6.222487e-03	-2.523075e-06	5.150705e+00	1.103270e-20	
4.691284e-04	-3.805771e-03	1.010034e+00	0.000000e+00	0.000000e+00	2.538304e+00	1.000000e-10	1.015322e+00	1.005231e+00	9.726431e-01	0.000000e+00	0.000000e+00	4.778482e-03	-1.716076e-06	5.225042e+00	1.110024e-20	
1.500786e-04	-2.161300e-03	1.012178e+00	0.000000e+00	0.000000e+00	2.543537e+00	1.000000e-10	1.017415e+00	1.005170e+00	1.105558e+00	0.000000e+00	0.000000e+00	2.564258e-03	-5.678689e-07	4.532731e+00	1.119637e-20	
2.721276e-05	-9.231024e-04	1.012568e+00	0.000000e+00	0.000000e+00	2.544160e+00	1.000000e-10	1.017664e+00	1.005029e+00	1.121365e+00	0.000000e+00	0.000000e+00	1.029181e-03	-8.067720e-08	3.472131e+00	1.121725e-20	
0.000000e+00	0.000000e+00	1.012325e+00	0.000000e+00	0.000000e+00	2.543327e+00	1.000000e-10	1.017331e+00	1.004940e+00	1.100210e+00	0.000000e+00	0.000000e+00	4.535555e-08	-2.437804e-08	2.821113e-02	1.120880e-20	
2.721276e-05	9.231024e-04	1.012568e+00	0.000000e+00	0.000000e+00	2.544160e+00	1.000000e-10	1.017664e+00	1.005029e+00	1.121365e+00	0.000000e+00	0.000000e+00	1.029117e-03	-8.066231e-08	3.472023e+00	1.121725e-20	
1.500786e-04	2.161300e-03	1.012178e+00	0.000000e+00	0.000000e+00	2.543538e+00	1.000000e-10	1.017415e+00	1.005170e+00	1.105561e+00	0.000000e+00	0.000000e+00	2.564223e-03	-5.678518e-07	4.532700e+00	1.119638e-20	
4.691284e-04	3.805771e-03	1.010034e+00	0.000000e+00	0.000000e+00	2.538304e+00	1.000000e-10	1.015322e+00	1.005231e+00	9.726463e-01	0.000000e+00	0.000000e+00	4.778423e-03	-1.716034e-06	5.225010e+00	1.110024e-20	
1.159193e-03	5.950300e-03	1.008505e+00	0.000000e+00	0.000000e+00	2.534508e+00	1.000000e-10	1.013803e+00	1.005249e+00	8.762364e-01	0.000000e+00	0.000000e+00	6.222493e-03	-2.523080e-06	5.150708e+00	1.103270e-20	
2.493434e-03	8.666020e-03	1.005510e+00	0.000000e+00	0.000000e+00	2.526206e+00	1.000000e-10	1.010482e+00	1.004940e+00	6.653943e-01	0.000000e+00	0.000000e+00	4.763083e-03	-1.358900e-06	3.978398e+00	1.090999e-20	
4.844550e-03	1.197282e-02	1.001618e+00	0.000000e+00	0.000000e+00	2.515647e+00	1.000000e-10	1.006259e+00	1.004629e+00	3.972215e-01	0.000000e+00	0.000000e+00	5.792477e-03	-1.769315e-06	3.953931e+00	1.074970e-20	
8.660978e-03	1.583433e-02	9.979684e-01	0.000000e+00	0.000000e+00	2.504897e+00	1.000000e-10	1.001959e+00	1.003994e+00	1.242046e-01	0.000000e+00	0.000000e+00	6.629536e-03	-2.108388e-06	3.887290e+00	1.060933e-20	
1.445220e-02	2.018403e-02	9.951719e-01	0.000000e+00	0.000000e+00	2.497407e+00	1.000000e-10	9.989630e-01	1.003805e+00	-6.599584e-02	0.000000e+00	0.000000e+00	6.740393e-03	-2.037448e-06	3.663419e+00	1.049546e-20	
2.280944e-02	2.495170e-02	9.927730e-01	0.000000e+00	0.000000e+00	2.491849e+00	1.000000e-10	9.967396e-01	1.003991e+00	-2.071581e-01	0.000000e+00	0.000000e+00	6.838216e-03	-1.979486e-06	3.497772e+00	1.039019e-20	
3.444509e-02	3.006547e-02	9.912055e-01	0.000000e+00	0.000000e+00	2.487874e+00	1.000000e-10	9.951496e-01	1.003975e+00	-3.081141e-01	0.000000e+00	0.000000e+00	6.554170e-03	-1.742779e-06	3.286205e+00	1.032511e-20	
5.022241e-02	3.543267e-02	9.901696e-01	0.000000e+00	0.000000e+00	2.485376e+00	1.000000e-10	9.941504e-01	1.004016e+00	-3.715570e-01	0.000000e+00	0.000000e+00	6.166868e-03	-1.493322e-06	3.088737e+00	1.028105e-20	
7.115831e-02	4.091264e-02	9.895716e-01	0.000000e+00	0.000000e+00	2.483999e+00	1.000000e-10	9.935997e-01	1.004066e+00	-4.065220e-01	0.000000e+00	0.000000e+00	5.817883e-03	-1.296815e-06	2.929403e+00	1.025505e-20	
9.838552e-02	4.628967e-02	9.893270e-01	0.000000e+00	0.000000e+00	2.483410e+00	1.000000e-10	9.933639e-01	1.004076e+00	-4.214910e-01	0.000000e+00	0.000000e+00	5.431579e-03	-1.109782e-06	2.780541e+00	1.024468e-20	
1.330575e-01	5.125403e-02	9.893062e-01	0.000000e+00	0.000000e+00	2.483376e+00	1.000000e-10	9.933505e-01	1.004084e+00	-4.223404e-01	0.000000e+00	0.000000e+00	5.023960e-03	-9.366120e-07	2.639169e+00	1.024364e-20	
1.761797e-01	5.540400e-02	9.895437e-01	0.000000e+00	0.000000e+00	2.483968e+00	1.000000e-10	9.935870e-01	1.004082e+00	-4.073257e-01	0.000000e+00	0.000000e+00	4.641395e-03	-7.915050e-07	2.512560e+00	1.025353e-20	
2.283666e-01	5.828472e-02	9.899195e-01	0.000000e+00	0.000000e+00	2.484941e+00	1.000000e-10	9.939763e-01	1.004094e+00	-3.826112e-01	0.000000e+00	0.000000e+00	4.270315e-03	-6.652871e-07	2.393673e+00	1.026883e-20	
2.895540e-01	5.947265e-02	9.904683e-01	0.000000e+00	0.000000e+00	2.486338e+00	1.000000e-10	9.945351e-01	1.004102e+00	-3.471274e-01	0.000000e+00	0.000000e+00	3.926972e-03	-5.598936e-07	2.284869e+00	1.029143e-20	
3.587470e-01	5.869148e-02	9.911129e-01	0.000000e+00	0.000000e+00	2.488031e+00	1.000000e-10	9.952125e-01	1.004132e+00	-3.041226e-01	0.000000e+00	0.000000e+00	3.579457e-03	-4.628313e-07	2.175141e+00	1.031753e-20	
4.339121e-01	5.591460e-02	9.918004e-01	0.000000e+00	0.000000e+00	2.489818e+00	1.000000e-10	9.959274e-01	1.004157e+00	-2.587315e-01	0.000000e+00	0.000000e+00	3.301226e-03	-3.929767e-07	2.085885e+00	1.034560e-20	
5.121166e-01	5.139795e-02	9.925110e-01	0.000000e+00	0.000000e+00	2.491625e+00	1.000000e-10	9.966498e-01	1.004166e+00	-2.128600e-01	0.000000e+00	0.000000e+00	3.053968e-03	-3.360543e-07	2.005944e+00	1.037507e-20	
5.899328e-01	4.561861e-02	9.931977e-01	0.000000e+00	0.000000e+00	2.493364e+00	1.000000e-10	9.973458e-01	1.004172e+00	-1.686740e-01	0.000000e+00	0.000000e+00	2.806317e-03	-2.838343e-07	1.924930e+00	1.040366e-20	
6.640066e-01	3.915032e-02	9.938532e-01	0.000000e+00	0.000000e+00	2.495020e+00	1.000000e-10	9.980079e-01	1.004176e+00	-1.266318e-01	0.000000e+00	0.000000e+00	2.584127e-03	-2.409622e-07	1.851463e+00	1.043106e-20	
7.316032e-01	3.253806e-02	9.944764e-01	0.000000e+00	0.000000e+00	2.496577e+00	1.000000e-10	9.986307e-01	1.004173e+00	-8.709319e-02	0.000000e+00	0.000000e+00	2.389502e-03	-2.064789e-07	1.787111e+00	1.045732e-20	
7.909518e-01	2.621660e-02	9.950699e-01	0.000000e+00	0.000000e+00	2.498047e+00	1.000000e-10	9.992189e-01	1.004165e+00	-4.974702e-02	0.000000e+00	0.000000e+00	2.219021e-03	-1.785843e-07	1.731712e+00	1.048249e-20	
8.413160e-01	2.048016e-02	9.956464e-01	0.000000e+00	0.000000e+00	2.499443e+00	1.000000e-10	9.997773e-01	1.004145e+00	-1.429233e-02	0.000000e+00	0.000000e+00	2.056822e-03	-1.538971e-07	1.680138e+00	1.050730e-20	
8.828360e-01	1.548810e-02	9.962704e-01	0.000000e+00	0.000000e+00	2.500965e+00	1.000000e-10	1.000386e+00	1.004127e+00	2.435992e-02	0.000000e+00	0.000000e+00	1.886076e-03	-1.298521e-07	1.625956e+00	1.053410e-20	
9.162555e-01	1.128962e-02	9.968984e-01	0.000000e+00	0.000000e+00	2.502507e+00	1.000000e-10	1.001003e+00	1.004113e+00	6.351207e-02	0.000000e+00	0.000000e+00	1.718455e-03	-1.091547e-07	1.574203e+00	1.056103e-20	
9.426407e-01	7.855481e-03	9.974661e-01	0.000000e+00	0.000000e+00	2.503959e+00	1.000000e-10	1.001583e+00	1.004123e+00	1.003836e-01	0.000000e+00	0.000000e+00	1.607527e-03	-9.729628e-08	1.551531e+00	1.058484e-20	
9.631568e-01	5.108981e-03	9.979832e-01	0.000000e+00	0.000000e+00	2.505393e+00	1.000000e-10	1.002157e+00	1.004178e+00	1.368218e-01	0.000000e+00	0.000000e+00	1.544974e-03	-9.035693e-08	1.559376e+00	1.060547e-20	
9.789211e-01	2.951446e-03	9.984078e-01	0.000000e+00	0.000000e+00	2.506772e+00	1.000000e-10	1.002709e+00	1.004303e+00	1.718237e-01	0.000000e+00	0.000000e+00	1.519622e-03	-8.456790e-08	1.597738e+00	1.062049e-20	
9.909241e-01	1.280290e-03	9.987004e-01	0.000000e+00	0.000000e+00	2.507154e+00	1.000000e-10	1.002862e+00	1.004162e+00	1.815406e-01	0.000000e+00	0.000000e+00	1.321558e-03	-7.411204e-08	1.554725e+00	1.063638e-20	
5.010000e+02	-8.330143e-06	9.999976e-01	1.774675e-01	9.696507e-13	2.515754e+00	7.478924e-06	1.000003e+00	1.000001e+00	9.977659e-06	1.499874e-01	0.000000e+00	0.000000e+00	0.000000e+00	0.000000e+00	7.477526e-06	
3.278693e+02	-8.330188e-06	9.999970e-01	1.772432e-01	-9.571629e-11	2.515714e+00	1.106854e-05	1.000003e+00	1.000001e+00	1.415601e-05	1.497979e-01	0.000000e+00	0.000000e+00	0.000000e+00	0.000000e+00	1.106693e-05	
2.146849e+02	-8.330258e-06	9.999957e-01	1.770406e-01	-2.657941e-10	2.515678e+00	1.407665e-05	1.000003e+00	1.000003e+00	1.287396e-05	1.496267e-01	0.000000e+00	0.000000e+00	0.000000e+00	0.000000e+00	1.407481e-05	
1.406904e+02	-8.330364e-06	9.999929e-01	1.767427e-01	-6.177091e-10	2.515625e+00	1.719665e-05	1.000003e+00	1.000005e+00	9.361109e-06	1.493752e-01	0.000000e+00	0.000000e+00	0.000000e+00	0.000000e+00	1.719456e-05	
9.231638e+01	-8.330527e-06	9.999867e-01	1.762581e-01	-1.368280e-09	2.515540e+00	2.062504e-05	1.000003e+00	1.000012e+00	8.832760e-06	1.489661e-01	0.000000e+00	0.000000e+00	0.000000e+00	0.000000e+00	2.062263e-05	
6.069179e+01	-8.330776e-06	9.999739e-01	1.755011e-01	-2.773491e-09	2.515407e+00	2.386105e-05	1.000003e+00	1.000024e+00	1.240610e-05	1.483272e-01	0.000000e+00	0.000000e+00	0.000000e+00	0.000000e+00	2.385816e-05	
4.001717e+01	-8.331157e-06	9.999491e-01	1.743692e-01	-5.266509e-09	2.515209e+00	2.685813e-05	1.000003e+00	1.000049e+00	1.001105e-05	1.473725e-01	0.000000e+00	0.000000e+00	0.000000e+00	0.000000e+00	2.685449e-05	
2.650110e+01	-8.331739e-06	9.999049e-01	1.727428e-01	-9.176122e-09	2.514926e+00	2.923461e-05	1.000002e+00	1.000093e+00	-2.740549e-05	1.460011e-01	0.000000e+00	0.000000e+00	0.000000e+00	0.000000e+00	2.922974e-05	
1.766495e+01	-8.332630e-06	9.998321e-01	1.705065e-01	-1.386748e-08	2.514538e+00	3.091891e-05	9.999999e-01	1.000164e+00	-1.594702e-04	1.441164e-01	0.000000e+00	0.000000e+00	0.000000e+00	0.000000e+00	3.091186e-05	
1.188831e+01	-8.333993e-06	9.997212e-01	1.676023e-01	-1.678115e-08	2.514040e+00	3.130399e-05	9.999962e-01	1.000271e+00	-3.933794e-04	1.416698e-01	0.000000e+00	0.000000e+00	0.000000e+00	0.000000e+00	3.129387e-05	
8.111817e+00	-8.336078e-06	9.995734e-01	1.640841e-01	-1.311544e-08	2.513450e+00	3.094744e-05	9.999931e-01	1.000416e+00	-5.896237e-04	1.387065e-01	0.000000e+00	0.000000e+00	0.000000e+00	0.000000e+00	3.093325e-05	
5.642931e+00	-8.339268e-06	9.994005e-01	1.601260e-01	2.386774e-09	2.512815e+00	2.969948e-05	9.999950e-01	1.000591e+00	-4.673371e-04	1.353721e-01	0.000000e+00	0.000000e+00	0.000000e+00	0.000000e+00	2.968095e-05	
4.028892e+00	-8.344146e-06	9.992230e-01	1.559174e-01	2.736627e-08	2.512184e+00	2.825211e-05	1.000008e+00	1.000781e+00	3.429746e-04	1.318250e-01	0.000000e+00	0.000000e+00	0.000000e+00	0.000000e+00	2.822966e-05	
2.973712e+00	-8.351608e-06	9.990588e-01	1.514768e-01	5.757403e-08	2.511582e+00	2.650649e-05	1.000039e+00	1.000977e+00	2.345353e-03	1.280790e-01	0.000000e+00	0.000000e+00	0.000000e+00	0.000000e+00	2.648129e-05	
2.283886e+00	-8.363023e-06	9.989077e-01	1.466144e-01	9.655077e-08	2.511011e+00	2.436903e-05	1.000101e+00	1.001190e+00	6.235789e-03	1.239732e-01	0.000000e+00	0.000000e+00	0.000000e+00	0.000000e+00	2.434234e-05	
1.832911e+00	-8.380482e-06	9.987811e-01	1.410329e-01	1.624167e-07	2.510486e+00	2.214958e-05	1.000212e+00	1.001428e+00	1.328067e-02	1.192546e-01	0.000000e+00	0.000000e+00	0.000000e+00	0.000000e+00	2.212257e-05	
1.538086e+00	-8.407189e-06	9.986977e-01	1.344221e-01	2.807994e-07	2.510043e+00	1.984613e-05	1.000398e+00	1.001699e+00	2.514490e-02	1.136588e-01	0.000000e+00	0.000000e+00	0.000000e+00	0.000000e+00	1.982026e-05	
1.345344e+00	-8.448041e-06	9.986619e-01	1.266222e-01	4.861813e-07	2.509670e+00	1.754442e-05	1.000657e+00	1.001994e+00	4.157360e-02	1.070518e-01	0.000000e+00	0.000000e+00	0.000000e+00	0.000000e+00	1.752091e-05	
1.219338e+00	-8.510530e-06	9.986852e-01	1.176797e-01	8.253292e-07	2.509408e+00	1.523340e-05	1.000990e+00	1.002303e+00	6.269190e-02	9.947369e-02	0.000000e+00	0.000000e+00	0.000000e+00	0.000000e+00	1.521333e-05	
1.136961e+00	-8.606114e-06	9.987811e-01	1.077667e-01	1.364846e-06	2.509322e+00	1.298646e-05	1.001403e+00	1.002621e+00	8.895301e-02	9.107116e-02	0.000000e+00	0.000000e+00	0.000000e+00	0.000000e+00	1.297058e-05	
1.083108e+00	-8.752324e-06	9.989157e-01	9.718092e-02	2.185910e-06	2.509335e+00	1.083356e-05	1.001843e+00	1.002926e+00	1.168626e-01	8.210181e-02	0.000000e+00	0.000000e+00	0.000000e+00	0.000000e+00	1.082173e-05	
1.047901e+00	-8.975970e-06	9.990253e-01	8.609002e-02	3.468633e-06	2.509266e+00	8.758690e-06	1.002223e+00	1.003196e+00	1.409665e-01	7.271407e-02	0.000000e+00	0.000000e+00	0.000000e+00	0.000000e+00	8.750031e-06	
1.024884e+00	-9.318067e-06	9.990548e-01	7.357368e-02	6.556988e-06	2.508928e+00	6.592906e-06	1.002488e+00	1.003432e+00	1.577901e-01	6.213328e-02	0.000000e+00	0.000000e+00	0.000000e+00	0.000000e+00	6.586459e-06	
1.009837e+00	-9.841350e-06	9.991815e-01	5.305134e-02	3.263670e-05	2.508919e+00	3.998408e-06	1.003004e+00	1.003821e+00	1.905878e-01	4.478771e-02	0.000000e+00	0.000000e+00	0.000000e+00	0.000000e+00	3.994550e-06	
1.000001e+00	-1.059646e-05	9.980473e-01	9.730854e-04	9.853949e-05	2.507612e+00	7.258472e-10	1.003044e+00	1.005003e+00	1.931455e-01	8.261648e-04	0.000000e+00	0.000000e+00	0.000000e+00	0.000000e+00	2.939010e-17	
9.909255e-01	-1.290311e-03	9.985211e-01	7.036513e-03	9.199773e-04	2.506717e+00	1.664935e-08	1.002677e+00	1.004157e+00	1.697925e-01	5.993975e-03	0.000000e+00	0.000000e+00	0.000000e+00	0.000000e+00	8.163252e-12	
9.789225e-01	-2.961055e-03	9.980988e-01	7.750031e-03	9.313013e-04	2.506012e+00	1.786055e-08	1.002393e+00	1.004298e+00	1.517529e-01	6.595488e-03	0.000000e+00	0.000000e+00	0.000000e+00	0.000000e+00	1.078770e-11	
9.631581e-01	-5.118287e-03	9.978409e-01	7.632923e-03	8.823328e-04	2.505051e+00	1.809797e-08	1.002009e+00	1.004172e+00	1.273748e-01	6.494458e-03	0.000000e+00	0.000000e+00	0.000000e+00	0.000000e+00	1.136409e-11	
9.426419e-01	-7.864564e-03	9.974443e-01	7.744783e-03	9.059391e-04	2.503919e+00	1.839344e-08	1.001555e+00	1.004117e+00	9.860468e-02	6.593477e-03	0.000000e+00	0.000000e+00	0.000000e+00	0.000000e+00	1.210648e-11	
9.162567e-01	-1.129854e-02	9.969417e-01	8.119790e-03	9.715564e-04	2.502632e+00	1.892125e-08	1.001039e+00	1.004106e+00	6.583816e-02	6.918423e-03	0.000000e+00	0.000000e+00	0.000000e+00	0.000000e+00	1.352931e-11	
8.828371e-01	-1.549690e-02	9.963263e-01	8.782464e-03	1.058894e-03	2.501125e+00	1.961520e-08	1.000434e+00	1.004119e+00	2.741689e-02	7.488438e-03	0.000000e+00	0.000000e+00	0.000000e+00	0.000000e+00	1.558573e-11	
8.413170e-01	-2.048888e-02	9.956943e-01	9.477096e-03	1.116393e-03	2.499586e+00	2.021832e-08	9.998160e-01	1.004135e+00	-1.183247e-02	8.083152e-03	0.000000e+00	0.000000e+00	0.000000e+00	0.000000e+00	1.754631e-11	
7.909527e-01	-2.622526e-02	9.951069e-01	1.014933e-02	1.138832e-03	2.498166e+00	2.075047e-08	9.992453e-01	1.004154e+00	-4.806876e-02	8.656044e-03	0.000000e+00	0.000000e+00	0.000000e+00	0.000000e+00	1.941972e-11	
7.316040e-01	-3.254669e-02	9.945056e-01	1.087442e-02	1.138926e-03	2.496679e+00	2.133030e-08	9.986477e-01	1.004161e+00	-8.601405e-02	9.272599e-03	0.000000e+00	0.000000e+00	0.000000e+00	0.000000e+00	2.162861e-11	
6.640074e-01	-3.915893e-02	9.938790e-01	1.172308e-02	1.119178e-03	2.495119e+00	2.203074e-08	9.980195e-01	1.004162e+00	-1.258976e-01	9.993363e-03	0.000000e+00	0.000000e+00	0.000000e+00	0.000000e+00	2.454804e-11	
5.899335e-01	-4.562721e-02	9.932248e-01	1.271070e-02	1.066689e-03	2.493472e+00	2.285445e-08	9.973561e-01	1.004155e+00	-1.680162e-01	1.083130e-02	0.000000e+00	0.000000e+00	0.000000e+00	0.000000e+00	2.835246e-11	
5.121172e-01	-5.140655e-02	9.925438e-01	1.382918e-02	9.577749e-04	2.491754e+00	2.376724e-08	9.966629e-01	1.004146e+00	-2.120314e-01	1.177938e-02	0.000000e+00	0.000000e+00	0.000000e+00	0.000000e+00	3.306544e-11	
4.339125e-01	-5.592321e-02	9.918414e-01	1.496372e-02	7.571043e-04	2.489976e+00	2.470519e-08	9.959452e-01	1.004133e+00	-2.575992e-01	1.274066e-02	0.000000e+00	0.000000e+00	0.000000e+00	0.000000e+00	3.848763e-11	
3.587472e-01	-5.870011e-02	9.911640e-01	1.625936e-02	4.434119e-04	2.488224e+00	2.572861e-08	9.952363e-01	1.004104e+00	-3.026093e-01	1.384092e-02	0.000000e+00	0.000000e+00	0.000000e+00	0.000000e+00	4.514280e-11	
2.895540e-01	-5.948131e-02	9.905081e-01	1.789264e-02	-5.562962e-06	2.486516e+00	2.684276e-08	9.945418e-01	1.004068e+00	-3.467035e-01	1.523597e-02	0.000000e+00	0.000000e+00	0.000000e+00	0.000000e+00	5.333540e-11	
2.283663e-01	-5.829342e-02	9.899749e-01	1.953429e-02	-6.497043e-04	2.485173e+00	2.804700e-08	9.939921e-01	1.004054e+00	-3.816037e-01	1.665215e-02	0.000000e+00	0.000000e+00	0.000000e+00	0.000000e+00	6.341771e-11	
1.761791e-01	-5.541274e-02	9.896095e-01	2.133459e-02	-1.524105e-03	2.484244e+00	2.938898e-08	9.936053e-01	1.004034e+00	-4.061613e-01	1.823001e-02	0.000000e+00	0.000000e+00	0.000000e+00	0.000000e+00	7.631917e-11	
1.330564e-01	-5.126281e-02	9.893832e-01	2.322428e-02	-2.670868e-03	2.483704e+00	3.077250e-08	9.933710e-01	1.004026e+00	-4.210415e-01	1.992936e-02	0.000000e+00	0.000000e+00	0.000000e+00	0.000000e+00	9.161978e-11	
9.838401e-02	-4.629852e-02	9.894182e-01	2.527648e-02	-4.170114e-03	2.483799e+00	3.230913e-08	9.933871e-01	1.004007e+00	-4.200199e-01	2.183910e-02	0.000000e+00	0.000000e+00	0.000000e+00	0.000000e+00	1.113048e-10	
7.115627e-02	-4.092154e-02	9.896796e-01	2.727822e-02	-6.091267e-03	2.484461e+00	3.391080e-08	9.936267e-01	1.003984e+00	-4.048080e-01	2.382097e-02	0.000000e+00	0.000000e+00	0.000000e+00	0.000000e+00	1.351478e-10	
5.021973e-02	-3.544162e-02	9.902968e-01	2.914590e-02	-8.545999e-03	2.485921e+00	3.557631e-08	9.941820e-01	1.003919e+00	-3.695504e-01	2.587067e-02	0.000000e+00	0.000000e+00	0.000000e+00	0.000000e+00	1.640491e-10	
3.444160e-02	-3.007446e-02	9.913574e-01	3.119473e-02	-1.185076e-02	2.488527e+00	3.756569e-08	9.951863e-01	1.003858e+00	-3.057847e-01	2.839382e-02	0.000000e+00	0.000000e+00	0.000000e+00	0.000000e+00	2.046680e-10	
2.280494e-02	-2.496067e-02	9.929549e-01	3.264455e-02	-1.603980e-02	2.492628e+00	3.947459e-08	9.967847e-01	1.003853e+00	-2.042972e-01	3.089875e-02	0.000000e+00	0.000000e+00	0.000000e+00	0.000000e+00	2.509349e-10	
1.444640e-02	-2.019287e-02	9.953442e-01	3.197839e-02	-2.045230e-02	2.498189e+00	4.070208e-08	9.989861e-01	1.003655e+00	-6.452763e-02	3.217278e-02	0.000000e+00	0.000000e+00	0.000000e+00	0.000000e+00	2.863116e-10	
8.653545e-03	-1.584284e-02	9.982232e-01	3.056719e-02	-2.598819e-02	2.505926e+00	4.171395e-08	1.002048e+00	1.003827e+00	1.298730e-01	3.390437e-02	0.000000e+00	0.000000e+00	0.000000e+00	0.000000e+00	3.192133e-10	
4.835131e-03	-1.198070e-02	1.001756e+00	2.515388e-02	-2.887441e-02	2.516343e+00	4.127599e-08	1.006244e+00	1.004476e+00	3.963095e-01	3.223568e-02	0.000000e+00	0.000000e+00	0.000000e+00	0.000000e+00	3.099628e-10	