TITLE = "Visualization of the surface solution"
VARIABLES = "x","y","Conservative_1","Conservative_2","Conservative_3","Conservative_4","Conservative_5","Pressure","Temperature","Pressure_Coefficient","Mach","Laminar_Viscosity", "Skin_Friction_Coefficient", "Heat_Flux", "Y_Plus", "Eddy_Viscosity"
ZONE NODES= 64, ELEMENTS= 64, DATAPACKING=POINT, ZONETYPE=FELINESEG
1.000000e+00	5.352203e-08	9.980462e-01	0.000000e+00	0.000000e+00	2.507663e+00	1.000000e-10	1.003065e+00	1.005024e+00	1.944589e-01	0.000000e+00	0.000000e+00	2.236490e-08	-1.083031e-08	6.211396e+00	1.058759e-20	
9.909241e-01	-1.280290e-03	9.987027e-01	0.000000e+00	0.000000e+00	2.507160e+00	1.000000e-10	1.002864e+00	1.004163e+00	1.816971e-01	0.000000e+00	0.000000e+00	1.323210e-03	-7.425093e-08	1.555698e+00	1.063648e-20	
9.789211e-01	-2.951446e-03	9.984073e-01	0.000000e+00	0.000000e+00	2.506770e+00	1.000000e-10	1.002708e+00	1.004303e+00	1.717863e-01	0.000000e+00	0.000000e+00	1.518982e-03	-8.450749e-08	1.597401e+00	1.062047e-20	
9.631568e-01	-5.108981e-03	9.979831e-01	0.000000e+00	0.000000e+00	2.505393e+00	1.000000e-10	1.002157e+00	1.004178e+00	1.368137e-01	0.000000e+00	0.000000e+00	1.544762e-03	-9.033262e-08	1.559269e+00	1.060547e-20	
9.426407e-01	-7.855481e-03	9.974661e-01	0.000000e+00	0.000000e+00	2.503958e+00	1.000000e-10	1.001583e+00	1.004123e+00	1.003804e-01	0.000000e+00	0.000000e+00	1.607499e-03	-9.729307e-08	1.551518e+00	1.058484e-20	
9.162555e-01	-1.128962e-02	9.968984e-01	0.000000e+00	0.000000e+00	2.502507e+00	1.000000e-10	1.001003e+00	1.004113e+00	6.350951e-02	0.000000e+00	0.000000e+00	1.718454e-03	-1.091547e-07	1.574203e+00	1.056103e-20	
8.828360e-01	-1.548810e-02	9.962704e-01	0.000000e+00	0.000000e+00	2.500965e+00	1.000000e-10	1.000386e+00	1.004127e+00	2.435764e-02	0.000000e+00	0.000000e+00	1.886082e-03	-1.298529e-07	1.625958e+00	1.053410e-20	
8.413160e-01	-2.048016e-02	9.956464e-01	0.000000e+00	0.000000e+00	2.499443e+00	1.000000e-10	9.997773e-01	1.004145e+00	-1.429443e-02	0.000000e+00	0.000000e+00	2.056829e-03	-1.538982e-07	1.680141e+00	1.050730e-20	
7.909518e-01	-2.621660e-02	9.950698e-01	0.000000e+00	0.000000e+00	2.498047e+00	1.000000e-10	9.992188e-01	1.004165e+00	-4.974902e-02	0.000000e+00	0.000000e+00	2.219028e-03	-1.785854e-07	1.731715e+00	1.048249e-20	
7.316032e-01	-3.253806e-02	9.944764e-01	0.000000e+00	0.000000e+00	2.496577e+00	1.000000e-10	9.986306e-01	1.004173e+00	-8.709511e-02	0.000000e+00	0.000000e+00	2.389508e-03	-2.064799e-07	1.787113e+00	1.045732e-20	
6.640066e-01	-3.915032e-02	9.938532e-01	0.000000e+00	0.000000e+00	2.495020e+00	1.000000e-10	9.980079e-01	1.004176e+00	-1.266337e-01	0.000000e+00	0.000000e+00	2.584133e-03	-2.409631e-07	1.851465e+00	1.043106e-20	
5.899328e-01	-4.561861e-02	9.931977e-01	0.000000e+00	0.000000e+00	2.493364e+00	1.000000e-10	9.973457e-01	1.004172e+00	-1.686758e-01	0.000000e+00	0.000000e+00	2.806322e-03	-2.838352e-07	1.924931e+00	1.040366e-20	
5.121166e-01	-5.139795e-02	9.925109e-01	0.000000e+00	0.000000e+00	2.491625e+00	1.000000e-10	9.966498e-01	1.004166e+00	-2.128618e-01	0.000000e+00	0.000000e+00	3.053973e-03	-3.360553e-07	2.005945e+00	1.037507e-20	
4.339121e-01	-5.591460e-02	9.918004e-01	0.000000e+00	0.000000e+00	2.489818e+00	1.000000e-10	9.959273e-01	1.004157e+00	-2.587334e-01	0.000000e+00	0.000000e+00	3.301231e-03	-3.929779e-07	2.085887e+00	1.034560e-20	
3.587470e-01	-5.869148e-02	9.911128e-01	0.000000e+00	0.000000e+00	2.488031e+00	1.000000e-10	9.952124e-01	1.004132e+00	-3.041246e-01	0.000000e+00	0.000000e+00	3.579462e-03	-4.628326e-07	2.175142e+00	1.031753e-20	
2.895540e-01	-5.947265e-02	9.904682e-01	0.000000e+00	0.000000e+00	2.486338e+00	1.000000e-10	9.945351e-01	1.004102e+00	-3.471295e-01	0.000000e+00	0.000000e+00	3.926977e-03	-5.598951e-07	2.284870e+00	1.029143e-20	
2.283666e-01	-5.828472e-02	9.899195e-01	0.000000e+00	0.000000e+00	2.484941e+00	1.000000e-10	9.939762e-01	1.004094e+00	-3.826135e-01	0.000000e+00	0.000000e+00	4.270321e-03	-6.652889e-07	2.393674e+00	1.026883e-20	
1.761797e-01	-5.540400e-02	9.895437e-01	0.000000e+00	0.000000e+00	2.483967e+00	1.000000e-10	9.935870e-01	1.004082e+00	-4.073283e-01	0.000000e+00	0.000000e+00	4.641402e-03	-7.915072e-07	2.512562e+00	1.025353e-20	
1.330575e-01	-5.125403e-02	9.893061e-01	0.000000e+00	0.000000e+00	2.483376e+00	1.000000e-10	9.933505e-01	1.004084e+00	-4.223434e-01	0.000000e+00	0.000000e+00	5.023967e-03	-9.366145e-07	2.639170e+00	1.024364e-20	
9.838552e-02	-4.628967e-02	9.893270e-01	0.000000e+00	0.000000e+00	2.483410e+00	1.000000e-10	9.933638e-01	1.004076e+00	-4.214943e-01	0.000000e+00	0.000000e+00	5.431587e-03	-1.109785e-06	2.780543e+00	1.024468e-20	
7.115831e-02	-4.091264e-02	9.895716e-01	0.000000e+00	0.000000e+00	2.483999e+00	1.000000e-10	9.935996e-01	1.004066e+00	-4.065259e-01	0.000000e+00	0.000000e+00	5.817891e-03	-1.296819e-06	2.929405e+00	1.025505e-20	
5.022241e-02	-3.543267e-02	9.901696e-01	0.000000e+00	0.000000e+00	2.485376e+00	1.000000e-10	9.941503e-01	1.004016e+00	-3.715614e-01	0.000000e+00	0.000000e+00	6.166879e-03	-1.493327e-06	3.088739e+00	1.028105e-20	
3.444509e-02	-3.006547e-02	9.912054e-01	0.000000e+00	0.000000e+00	2.487874e+00	1.000000e-10	9.951495e-01	1.003975e+00	-3.081190e-01	0.000000e+00	0.000000e+00	6.554185e-03	-1.742787e-06	3.286209e+00	1.032511e-20	
2.280944e-02	-2.495170e-02	9.927729e-01	0.000000e+00	0.000000e+00	2.491849e+00	1.000000e-10	9.967396e-01	1.003991e+00	-2.071637e-01	0.000000e+00	0.000000e+00	6.838233e-03	-1.979496e-06	3.497776e+00	1.039019e-20	
1.445220e-02	-2.018403e-02	9.951718e-01	0.000000e+00	0.000000e+00	2.497407e+00	1.000000e-10	9.989629e-01	1.003805e+00	-6.600180e-02	0.000000e+00	0.000000e+00	6.740425e-03	-2.037467e-06	3.663428e+00	1.049546e-20	
8.660978e-03	-1.583433e-02	9.979683e-01	0.000000e+00	0.000000e+00	2.504896e+00	1.000000e-10	1.001959e+00	1.003994e+00	1.241981e-01	0.000000e+00	0.000000e+00	6.629566e-03	-2.108407e-06	3.887298e+00	1.060933e-20	
4.844550e-03	-1.197282e-02	1.001618e+00	0.000000e+00	0.000000e+00	2.515646e+00	1.000000e-10	1.006259e+00	1.004629e+00	3.972154e-01	0.000000e+00	0.000000e+00	5.792515e-03	-1.769338e-06	3.953944e+00	1.074970e-20	
2.493434e-03	-8.666020e-03	1.005510e+00	0.000000e+00	0.000000e+00	2.526206e+00	1.000000e-10	1.010482e+00	1.004940e+00	6.653899e-01	0.000000e+00	0.000000e+00	4.763100e-03	-1.358909e-06	3.978405e+00	1.090999e-20	
1.159193e-03	-5.950300e-03	1.008505e+00	0.000000e+00	0.000000e+00	2.534508e+00	1.000000e-10	1.013803e+00	1.005249e+00	8.762317e-01	0.000000e+00	0.000000e+00	6.222487e-03	-2.523075e-06	5.150705e+00	1.103270e-20	
4.691284e-04	-3.805771e-03	1.010034e+00	0.000000e+00	0.000000e+00	2.538304e+00	1.000000e-10	1.015322e+00	1.005231e+00	9.726431e-01	0.000000e+00	0.000000e+00	4.778482e-03	-1.716076e-06	5.225042e+00	1.110024e-20	
1.500786e-04	-2.161300e-03	1.012178e+00	0.000000e+00	0.000000e+00	2.543537e+00	1.000000e-10	1.017415e+00	1.005170e+00	1.105558e+00	0.000000e+00	0.000000e+00	2.564258e-03	-5.678689e-07	4.532731e+00	1.119637e-20	
2.721276e-05	-9.231024e-04	1.012568e+00	0.000000e+00	0.000000e+00	2.544160e+00	1.000000e-10	1.017664e+00	1.005029e+00	1.121365e+00	0.000000e+00	0.000000e+00	1.029181e-03	-8.067720e-08	3.472131e+00	1.121725e-20	
0.000000e+00	0.000000e+00	1.012325e+00	0.000000e+00	0.000000e+00	2.543327e+00	1.000000e-10	1.017331e+00	1.004940e+00	1.100210e+00	0.000000e+00	0.000000e+00	4.535555e-08	-2.437804e-08	2.821113e-02	1.120880e-20	
2.721276e-05	9.231024e-04	1.012568e+00	0.000000e+00	0.000000e+00	2.544160e+00	1.000000e-10	1.017664e+00	1.005029e+00	1.121365e+00	0.000000e+00	0.000000e+00	1.029117e-03	-8.066231e-08	3.472023e+00	1.121725e-20	
1.500786e-04	2.161300e-03	1.012178e+00	0.000000e+00	0.000000e+00	2.543538e+00	1.000000e-10	1.017415e+00	1.005170e+00	1.105561e+00	0.000000e+00	0.000000e+00	2.564223e-03	-5.678518e-07	4.532700e+00	1.119638e-20	
4.691284e-04	3.805771e-03	1.010034e+00	0.000000e+00	0.000000e+00	2.538304e+00	1.000000e-10	1.015322e+00	1.005231e+00	9.726463e-01	0.000000e+00	0.000000e+00	4.778423e-03	-1.716034e-06	5.225010e+00	1.110024e-20	
1.159193e-03	5.950300e-03	1.008505e+00	0.000000e+00	0.000000e+00	2.534508e+00	1.000000e-10	1.013803e+00	1.005249e+00	8.762364e-01	0.000000e+00	0.000000e+00	6.222493e-03	-2.523080e-06	5.150708e+00	1.103270e-20	
2.493434e-03	8.666020e-03	1.005510e+00	0.000000e+00	0.000000e+00	2.526206e+00	1.000000e-10	1.010482e+00	1.004940e+00	6.653943e-01	0.000000e+00	0.000000e+00	4.763083e-03	-1.358900e-06	3.978398e+00	1.090999e-20	
4.844550e-03	1.197282e-02	1.001618e+00	0.000000e+00	0.000000e+00	2.515647e+00	1.000000e-10	1.006259e+00	1.004629e+00	3.972215e-01	0.000000e+00	0.000000e+00	5.792477e-03	-1.769315e-06	3.953931e+00	1.074970e-20	
8.660978e-03	1.583433e-02	9.979684e-01	0.000000e+00	0.000000e+00	2.504897e+00	1.000000e-10	1.001959e+00	1.003994e+00	1.242046e-01	0.000000e+00	0.000000e+00	6.629536e-03	-2.108388e-06	3.887290e+00	1.060933e-20	
1.445220e-02	2.018403e-02	9.951719e-01	0.000000e+00	0.000000e+00	2.497407e+00	1.000000e-10	9.989630e-01	1.003805e+00	-6.599584e-02	0.000000e+00	0.000000e+00	6.740393e-03	-2.037448e-06	3.663419e+00	1.049546e-20	
2.280944e-02	2.495170e-02	9.927730e-01	0.000000e+00	0.000000e+00	2.491849e+00	1.000000e-10	9.967396e-01	1.003991e+00	-2.071581e-01	0.000000e+00	0.000000e+00	6.838216e-03	-1.979486e-06	3.497772e+00	1.039019e-20	
3.444509e-02	3.006547e-02	9.912055e-01	0.000000e+00	0.000000e+00	2.487874e+00	1.000000e-10	9.951496e-01	1.003975e+00	-3.081141e-01	0.000000e+00	0.000000e+00	6.554170e-03	-1.742779e-06	3.286205e+00	1.032511e-20	
5.022241e-02	3.543267e-02	9.901696e-01	0.000000e+00	0.000000e+00	2.485376e+00	1.000000e-10	9.941504e-01	1.004016e+00	-3.715570e-01	0.000000e+00	0.000000e+00	6.166868e-03	-1.493322e-06	3.088737e+00	1.028105e-20	
7.115831e-02	4.091264e-02	9.895716e-01	0.000000e+00	0.000000e+00	2.483999e+00	1.000000e-10	9.935997e-01	1.004066e+00	-4.065220e-01	0.000000e+00	0.000000e+00	5.817883e-03	-1.296815e-06	2.929403e+00	1.025505e-20	
9.838552e-02	4.628967e-02	9.893270e-01	0.000000e+00	0.000000e+00	2.483410e+00	1.000000e-10	9.933639e-01	1.004076e+00	-4.214910e-01	0.000000e+00	0.000000e+00	5.431579e-03	-1.109782e-06	2.780541e+00	1.024468e-20	
1.330575e-01	5.125403e-02	9.893062e-01	0.000000e+00	0.000000e+00	2.483376e+00	1.000000e-10	9.933505e-01	1.004084e+00	-4.223404e-01	0.000000e+00	0.000000e+00	5.023960e-03	-9.366120e-07	2.639169e+00	1.024364e-20	
1.761797e-01	5.540400e-02	9.895437e-01	0.000000e+00	0.000000e+00	2.483968e+00	1.000000e-10	9.935870e-01	1.004082e+00	-4.073257e-01	0.000000e+00	0.000000e+00	4.641395e-03	-7.915050e-07	2.512560e+00	1.025353e-20	
2.283666e-01	5.828472e-02	9.899195e-01	0.000000e+00	0.000000e+00	2.484941e+00	1.000000e-10	9.939763e-01	1.004094e+00	-3.826112e-01	0.000000e+00	0.000000e+00	4.270315e-03	-6.652871e-07	2.393673e+00	1.026883e-20	
2.895540e-01	5.947265e-02	9.904683e-01	0.000000e+00	0.000000e+00	2.486338e+00	1.000000e-10	9.945351e-01	1.004102e+00	-3.471274e-01	0.000000e+00	0.000000e+00	3.926972e-03	-5.598936e-07	2.284869e+00	1.029143e-20	
3.587470e-01	5.869148e-02	9.911129e-01	0.000000e+00	0.000000e+00	2.488031e+00	1.000000e-10	9.952125e-01	1.004132e+00	-3.041226e-01	0.000000e+00	0.000000e+00	3.579457e-03	-4.628313e-07	2.175141e+00	1.031753e-20	
4.339121e-01	5.591460e-02	9.918004e-01	0.000000e+00	0.000000e+00	2.489818e+00	1.000000e-10	9.959274e-01	1.004157e+00	-2.587315e-01	0.000000e+00	0.000000e+00	3.301226e-03	-3.929767e-07	2.085885e+00	1.034560e-20	
5.121166e-01	5.139795e-02	9.925110e-01	0.000000e+00	0.000000e+00	2.491625e+00	1.000000e-10	9.966498e-01	1.004166e+00	-2.128600e-01	0.000000e+00	0.000000e+00	3.053968e-03	-3.360543e-07	2.005944e+00	1.037507e-20	
5.899328e-01	4.561861e-02	9.931977e-01	0.000000e+00	0.000000e+00	2.493364e+00	1.000000e-10	9.973458e-01	1.004172e+00	-1.686740e-01	0.000000e+00	0.000000e+00	2.806317e-03	-2.838343e-07	1.924930e+00	1.040366e-20	
6.640066e-01	3.915032e-02	9.938532e-01	0.000000e+00	0.000000e+00	2.495020e+00	1.000000e-10	9.980079e-01	1.004176e+00	-1.266318e-01	0.000000e+00	0.000000e+00	2.584127e-03	-2.409622e-07	1.851463e+00	1.043106e-20	
7.316032e-01	3.253806e-02	9.944764e-01	0.000000e+00	0.000000e+00	2.496577e+00	1.000000e-10	9.986307e-01	1.004173e+00	-8.709319e-02	0.000000e+00	0.000000e+00	2.389502e-03	-2.064789e-07	1.787111e+00	1.045732e-20	
7.909518e-01	2.621660e-02	9.950699e-01	0.000000e+00	0.000000e+00	2.498047e+00	1.000000e-10	9.992189e-01	1.004165e+00	-4.974702e-02	0.000000e+00	0.000000e+00	2.219021e-03	-1.785843e-07	1.731712e+00	1.048249e-20	
8.413160e-01	2.048016e-02	9.956464e-01	0.000000e+00	0.000000e+00	2.499443e+00	1.000000e-10	9.997773e-01	1.004145e+00	-1.429233e-02	0.000000e+00	0.000000e+00	2.056822e-03	-1.538971e-07	1.680138e+00	1.050730e-20	
8.828360e-01	1.548810e-02	9.962704e-01	0.000000e+00	0.000000e+00	2.500965e+00	1.000000e-10	1.000386e+00	1.004127e+00	2.435992e-02	0.000000e+00	0.000000e+00	1.886076e-03	-1.298521e-07	1.625956e+00	1.053410e-20	
9.162555e-01	1.128962e-02	9.968984e-01	0.000000e+00	0.000000e+00	2.502507e+00	1.000000e-10	1.001003e+00	1.004113e+00	6.351207e-02	0.000000e+00	0.000000e+00	1.718455e-03	-1.091547e-07	1.574203e+00	1.056103e-20	
9.426407e-01	7.855481e-03	9.974661e-01	0.000000e+00	0.000000e+00	2.503959e+00	1.000000e-10	1.001583e+00	1.004123e+00	1.003836e-01	0.000000e+00	0.000000e+00	1.607527e-03	-9.729628e-08	1.551531e+00	1.058484e-20	
9.631568e-01	5.108981e-03	9.979832e-01	0.000000e+00	0.000000e+00	2.505393e+00	1.000000e-10	1.002157e+00	1.004178e+00	1.368218e-01	0.000000e+00	0.000000e+00	1.544974e-03	-9.035693e-08	1.559376e+00	1.060547e-20	
9.789211e-01	2.951446e-03	9.984078e-01	0.000000e+00	0.000000e+00	2.506772e+00	1.000000e-10	1.002709e+00	1.004303e+00	1.718237e-01	0.000000e+00	0.000000e+00	1.519622e-03	-8.456790e-08	1.597738e+00	1.062049e-20	
9.909241e-01	1.280290e-03	9.987004e-01	0.000000e+00	0.000000e+00	2.507154e+00	1.000000e-10	1.002862e+00	1.004162e+00	1.815406e-01	0.000000e+00	0.000000e+00	1.321558e-03	-7.411204e-08	1.554725e+00	1.063638e-20	
1	2
2	3
3	4
4	5
5	6
6	7
7	8
8	9
9	10
10	11
11	12
12	13
13	14
14	15
15	16
16	17
17	18
18	19
19	20
20	21
21	22
22	23
23	24
24	25
25	26
26	27
27	28
28	29
29	30
30	31
31	32
32	33
33	34
34	35
35	36
36	37
37	38
38	39
39	40
40	41
41	42
42	43
43	44
44	45
45	46
46	47
47	48
48	49
49	50
50	51
51	52
52	53
53	54
54	55
55	56
56	57
57	58
58	59
59	60
60	61
61	62
62	63
63	64
64	1
