TITLE = "Visualization of the surface solution"
VARIABLES = "x","y","Conservative_1","Conservative_2","Conservative_3","Conservative_4","Conservative_5","Limiter_1","Limiter_2","Limiter_3","Limiter_4","Limiter_5","Pressure","Temperature","Pressure_Coefficient","Mach","Laminar_Viscosity", "Skin_Friction_Coefficient", "Heat_Flux", "Y_Plus", "Eddy_Viscosity"
ZONE NODES= 64, ELEMENTS= 64, DATAPACKING=POINT, ZONETYPE=FELINESEG
1.000000e+00	5.352203e-08	9.905367e-01	0.000000e+00	0.000000e+00	2.486976e+00	1.000000e-10	9.968894e-01	9.003093e-01	9.348742e-01	5.694115e-01	0.000000e+00	9.947903e-01	1.004290e+00	-3.309257e-01	0.000000e+00	0.000000e+00	8.886574e-05	-6.980930e-08	3.902804e+02	1.028983e-20	
9.909241e-01	-1.280290e-03	9.918846e-01	0.000000e+00	0.000000e+00	2.490785e+00	1.000000e-10	1.000000e+00	9.983214e-01	9.999676e-01	9.999927e-01	0.000000e+00	9.963139e-01	1.004461e+00	-2.341899e-01	0.000000e+00	0.000000e+00	2.504231e-03	-1.186370e-06	2.132365e+00	1.034189e-20	
9.789211e-01	-2.951446e-03	9.913483e-01	0.000000e+00	0.000000e+00	2.490487e+00	1.000000e-10	9.999998e-01	9.826214e-01	9.996588e-01	9.999999e-01	0.000000e+00	9.961947e-01	1.004884e+00	-2.417607e-01	0.000000e+00	0.000000e+00	4.818150e-03	-9.472139e-07	2.833637e+00	1.030953e-20	
9.631568e-01	-5.108981e-03	9.919843e-01	0.000000e+00	0.000000e+00	2.490907e+00	1.000000e-10	9.999997e-01	9.549282e-01	9.991342e-01	9.999993e-01	0.000000e+00	9.963628e-01	1.004410e+00	-2.310865e-01	0.000000e+00	0.000000e+00	4.777242e-03	-9.162243e-07	2.733335e+00	1.034727e-20	
9.426407e-01	-7.855481e-03	9.926867e-01	0.000000e+00	0.000000e+00	2.491644e+00	1.000000e-10	9.999998e-01	9.155736e-01	9.984080e-01	9.999981e-01	0.000000e+00	9.966578e-01	1.003996e+00	-2.123549e-01	0.000000e+00	0.000000e+00	4.174680e-03	-6.910285e-07	2.494551e+00	1.038646e-20	
9.162555e-01	-1.128962e-02	9.931939e-01	0.000000e+00	0.000000e+00	2.492488e+00	1.000000e-10	9.999995e-01	8.453915e-01	9.970814e-01	9.999940e-01	0.000000e+00	9.969954e-01	1.003823e+00	-1.909210e-01	0.000000e+00	0.000000e+00	3.808039e-03	-5.551722e-07	2.339538e+00	1.041184e-20	
8.828360e-01	-1.548810e-02	9.936468e-01	0.000000e+00	0.000000e+00	2.493468e+00	1.000000e-10	9.999992e-01	7.253105e-01	9.945448e-01	9.999768e-01	0.000000e+00	9.973871e-01	1.003760e+00	-1.660484e-01	0.000000e+00	0.000000e+00	3.692431e-03	-4.933880e-07	2.272661e+00	1.043235e-20	
8.413160e-01	-2.048016e-02	9.940549e-01	0.000000e+00	0.000000e+00	2.494513e+00	1.000000e-10	9.999978e-01	5.757320e-01	9.905424e-01	9.999005e-01	0.000000e+00	9.978052e-01	1.003768e+00	-1.395059e-01	0.000000e+00	0.000000e+00	3.613387e-03	-4.733343e-07	2.225776e+00	1.044930e-20	
7.909518e-01	-2.621660e-02	9.944032e-01	0.000000e+00	0.000000e+00	2.495538e+00	1.000000e-10	9.999958e-01	4.360312e-01	9.852759e-01	9.996212e-01	0.000000e+00	9.982154e-01	1.003829e+00	-1.134618e-01	0.000000e+00	0.000000e+00	3.479060e-03	-4.546149e-07	2.168163e+00	1.046249e-20	
7.316032e-01	-3.253806e-02	9.947392e-01	0.000000e+00	0.000000e+00	2.496561e+00	1.000000e-10	9.999934e-01	3.189466e-01	9.788118e-01	9.990242e-01	0.000000e+00	9.986245e-01	1.003901e+00	-8.748638e-02	0.000000e+00	0.000000e+00	3.328802e-03	-4.247456e-07	2.110034e+00	1.047490e-20	
6.640066e-01	-3.915032e-02	9.950829e-01	0.000000e+00	0.000000e+00	2.497607e+00	1.000000e-10	9.999901e-01	2.225523e-01	9.710420e-01	9.981352e-01	0.000000e+00	9.990428e-01	1.003975e+00	-6.092660e-02	0.000000e+00	0.000000e+00	3.212988e-03	-3.973640e-07	2.066084e+00	1.048762e-20	
5.899328e-01	-4.561861e-02	9.954383e-01	0.000000e+00	0.000000e+00	2.498708e+00	1.000000e-10	9.999842e-01	1.462879e-01	9.625775e-01	9.971493e-01	0.000000e+00	9.994832e-01	1.004059e+00	-3.296324e-02	0.000000e+00	0.000000e+00	3.173192e-03	-3.859171e-07	2.049375e+00	1.050058e-20	
5.121166e-01	-5.139795e-02	9.958513e-01	0.000000e+00	0.000000e+00	2.499935e+00	1.000000e-10	9.999734e-01	9.152090e-02	9.567440e-01	9.962902e-01	0.000000e+00	9.999740e-01	1.004135e+00	-1.805557e-03	0.000000e+00	0.000000e+00	3.248122e-03	-3.977773e-07	2.072251e+00	1.051617e-20	
4.339121e-01	-5.591460e-02	9.962571e-01	0.000000e+00	0.000000e+00	2.501252e+00	1.000000e-10	9.999565e-01	5.651939e-02	9.605745e-01	9.965868e-01	0.000000e+00	1.000501e+00	1.004255e+00	3.163368e-02	0.000000e+00	0.000000e+00	3.332534e-03	-4.177523e-07	2.100298e+00	1.053043e-20	
3.587470e-01	-5.869148e-02	9.967821e-01	0.000000e+00	0.000000e+00	2.502732e+00	1.000000e-10	9.999286e-01	3.772094e-02	9.812535e-01	9.985339e-01	0.000000e+00	1.001093e+00	1.004320e+00	6.923817e-02	0.000000e+00	0.000000e+00	3.472008e-03	-4.510642e-07	2.148054e+00	1.055107e-20	
2.895540e-01	-5.947265e-02	9.974500e-01	0.000000e+00	0.000000e+00	2.504434e+00	1.000000e-10	9.998951e-01	2.927722e-02	9.999709e-01	9.999952e-01	0.000000e+00	1.001774e+00	1.004330e+00	1.124678e-01	0.000000e+00	0.000000e+00	3.591645e-03	-4.869860e-07	2.192443e+00	1.057913e-20	
2.283666e-01	-5.828472e-02	9.982972e-01	0.000000e+00	0.000000e+00	2.506467e+00	1.000000e-10	9.998745e-01	2.687280e-02	9.688140e-01	9.980382e-01	0.000000e+00	1.002587e+00	1.004293e+00	1.640885e-01	0.000000e+00	0.000000e+00	3.648096e-03	-5.163401e-07	2.221426e+00	1.061604e-20	
1.761797e-01	-5.540400e-02	9.993903e-01	0.000000e+00	0.000000e+00	2.509099e+00	1.000000e-10	9.998719e-01	2.857105e-02	8.718818e-01	9.931615e-01	0.000000e+00	1.003640e+00	1.004248e+00	2.309368e-01	0.000000e+00	0.000000e+00	3.631271e-03	-5.323530e-07	2.233143e+00	1.066372e-20	
1.330575e-01	-5.125403e-02	1.000782e+00	0.000000e+00	0.000000e+00	2.512403e+00	1.000000e-10	9.999049e-01	3.481270e-02	7.560171e-01	9.882808e-01	0.000000e+00	1.004961e+00	1.004171e+00	3.148342e-01	0.000000e+00	0.000000e+00	3.500609e-03	-5.199685e-07	2.215598e+00	1.072511e-20	
9.838552e-02	-4.628967e-02	1.002152e+00	0.000000e+00	0.000000e+00	2.516335e+00	1.000000e-10	9.999158e-01	4.750860e-02	6.698542e-01	9.852450e-01	0.000000e+00	1.006534e+00	1.004368e+00	4.147078e-01	0.000000e+00	0.000000e+00	3.250023e-03	-4.697979e-07	2.164260e+00	1.077910e-20	
7.115831e-02	-4.091264e-02	1.004371e+00	0.000000e+00	0.000000e+00	2.520652e+00	1.000000e-10	9.999537e-01	5.751879e-02	5.682270e-01	9.842614e-01	0.000000e+00	1.008261e+00	1.003868e+00	5.243334e-01	0.000000e+00	0.000000e+00	3.238785e-03	-4.729227e-07	2.202303e+00	1.088739e-20	
5.022241e-02	-3.543267e-02	1.005703e+00	0.000000e+00	0.000000e+00	2.525358e+00	1.000000e-10	9.999289e-01	6.182982e-02	4.451348e-01	9.814661e-01	0.000000e+00	1.010143e+00	1.004411e+00	6.438543e-01	0.000000e+00	0.000000e+00	3.451924e-03	-5.582075e-07	2.328241e+00	1.093160e-20	
3.444509e-02	-3.006547e-02	1.007932e+00	0.000000e+00	0.000000e+00	2.530075e+00	1.000000e-10	9.999008e-01	7.598862e-02	3.940179e-01	9.789977e-01	0.000000e+00	1.012030e+00	1.004061e+00	7.636531e-01	0.000000e+00	0.000000e+00	3.414685e-03	-6.875799e-07	2.391753e+00	1.103772e-20	
2.280944e-02	-2.495170e-02	1.009693e+00	0.000000e+00	0.000000e+00	2.534172e+00	1.000000e-10	9.995086e-01	2.848008e-02	1.111746e-01	9.996860e-01	0.000000e+00	1.013669e+00	1.003933e+00	8.677046e-01	0.000000e+00	0.000000e+00	6.484245e-03	-2.284856e-06	3.435095e+00	1.111831e-20	
1.445220e-02	-2.018403e-02	1.009771e+00	0.000000e+00	0.000000e+00	2.540801e+00	1.000000e-10	9.999938e-01	9.466724e-02	2.128803e-01	9.824486e-01	0.000000e+00	1.016321e+00	1.006481e+00	1.036069e+00	0.000000e+00	0.000000e+00	3.997090e-03	-2.430335e-07	2.835896e+00	1.105699e-20	
8.660978e-03	-1.583433e-02	1.009838e+00	0.000000e+00	0.000000e+00	2.536675e+00	1.000000e-10	9.998373e-01	7.026151e-02	9.371558e-02	9.965375e-01	0.000000e+00	1.014670e+00	1.004780e+00	9.312615e-01	0.000000e+00	0.000000e+00	5.960130e-03	-1.292302e-06	3.705438e+00	1.110311e-20	
4.844550e-03	-1.197282e-02	1.006663e+00	0.000000e+00	0.000000e+00	2.529455e+00	1.000000e-10	9.995980e-01	1.102276e-01	8.107543e-02	9.993729e-01	0.000000e+00	1.011782e+00	1.005081e+00	7.479106e-01	0.000000e+00	0.000000e+00	6.667203e-03	-2.617730e-06	4.251184e+00	1.095657e-20	
2.493434e-03	-8.666020e-03	1.000426e+00	0.000000e+00	0.000000e+00	2.515351e+00	1.000000e-10	9.958974e-01	1.204715e-01	4.572115e-02	9.881950e-01	0.000000e+00	1.006141e+00	1.005708e+00	3.897247e-01	0.000000e+00	0.000000e+00	1.075443e-02	-9.873520e-06	5.959400e+00	1.067221e-20	
1.159193e-03	-5.950300e-03	9.921291e-01	0.000000e+00	0.000000e+00	2.492611e+00	1.000000e-10	9.930232e-01	2.823437e-01	5.426251e-02	9.815910e-01	0.000000e+00	9.970444e-01	1.004950e+00	-1.878095e-01	0.000000e+00	0.000000e+00	1.346470e-02	-1.871128e-05	7.516707e+00	1.034049e-20	
4.691284e-04	-3.805771e-03	9.797620e-01	0.000000e+00	0.000000e+00	2.457963e+00	1.000000e-10	9.985985e-01	7.356649e-01	1.186637e-01	9.916692e-01	0.000000e+00	9.831852e-01	1.003490e+00	-1.067754e+00	0.000000e+00	0.000000e+00	1.368838e-02	-1.476037e-05	8.721507e+00	9.867478e-21	
1.500786e-04	-2.161300e-03	9.771117e-01	0.000000e+00	0.000000e+00	2.453510e+00	1.000000e-10	9.997770e-01	9.701688e-01	3.457875e-01	9.961606e-01	0.000000e+00	9.814041e-01	1.004389e+00	-1.180838e+00	0.000000e+00	0.000000e+00	1.182452e-02	-1.043807e-05	9.569158e+00	9.741020e-21	
2.721276e-05	-9.231024e-04	9.788666e-01	0.000000e+00	0.000000e+00	2.457618e+00	1.000000e-10	9.999406e-01	9.983683e-01	7.082153e-01	9.999668e-01	0.000000e+00	9.830470e-01	1.004266e+00	-1.076528e+00	0.000000e+00	0.000000e+00	9.863907e-03	-9.334153e-06	1.057493e+01	9.813941e-21	
0.000000e+00	0.000000e+00	9.782281e-01	0.000000e+00	0.000000e+00	2.456317e+00	1.000000e-10	9.999686e-01	9.999968e-01	8.708905e-01	9.999886e-01	0.000000e+00	9.825267e-01	1.004390e+00	-1.109562e+00	0.000000e+00	0.000000e+00	9.374629e-03	-1.033783e-05	1.261319e+01	9.785587e-21	
2.721276e-05	9.231024e-04	9.788893e-01	0.000000e+00	0.000000e+00	2.457573e+00	1.000000e-10	9.999659e-01	9.954677e-01	5.424633e-01	9.997734e-01	0.000000e+00	9.830293e-01	1.004225e+00	-1.077652e+00	0.000000e+00	0.000000e+00	1.412383e-02	-1.112651e-05	1.265459e+01	9.815785e-21	
1.500786e-04	2.161300e-03	9.804731e-01	0.000000e+00	0.000000e+00	2.473715e+00	1.000000e-10	9.955758e-01	8.541508e-01	1.052808e-01	9.999999e-01	0.000000e+00	9.894860e-01	1.009188e+00	-6.677053e-01	0.000000e+00	0.000000e+00	2.520920e-02	-4.323081e-05	1.394498e+01	9.767924e-21	
4.691284e-04	3.805771e-03	9.683922e-01	0.000000e+00	0.000000e+00	2.428283e+00	1.000000e-10	9.444013e-01	2.210201e-01	1.884854e-02	7.971536e-01	0.000000e+00	9.713131e-01	1.003012e+00	-1.821535e+00	0.000000e+00	0.000000e+00	3.660437e-02	-1.003989e-04	1.418425e+01	9.427700e-21	
1.159193e-03	5.950300e-03	9.633072e-01	0.000000e+00	0.000000e+00	2.411285e+00	1.000000e-10	8.898143e-01	4.623878e-02	8.519346e-03	8.462475e-01	0.000000e+00	9.645142e-01	1.001249e+00	-2.253216e+00	0.000000e+00	0.000000e+00	3.519544e-02	-8.206303e-05	1.200887e+01	9.268764e-21	
2.493434e-03	8.666020e-03	9.599584e-01	0.000000e+00	0.000000e+00	2.410619e+00	1.000000e-10	9.728179e-01	3.701488e-02	1.524613e-02	9.567654e-01	0.000000e+00	9.642476e-01	1.004464e+00	-2.270140e+00	0.000000e+00	0.000000e+00	1.927501e-02	-2.501543e-05	7.822627e+00	9.073240e-21	
4.844550e-03	1.197282e-02	9.583266e-01	0.000000e+00	0.000000e+00	2.414349e+00	1.000000e-10	9.925072e-01	3.225690e-02	2.583243e-02	9.971346e-01	0.000000e+00	9.657397e-01	1.007731e+00	-2.175402e+00	0.000000e+00	0.000000e+00	1.248169e-02	-9.369930e-06	5.663845e+00	8.944541e-21	
8.660978e-03	1.583433e-02	9.614492e-01	0.000000e+00	0.000000e+00	2.424100e+00	1.000000e-10	9.964290e-01	2.487995e-02	3.519673e-02	9.996295e-01	0.000000e+00	9.696399e-01	1.008515e+00	-1.927776e+00	0.000000e+00	0.000000e+00	1.019348e-02	-5.594791e-06	4.714910e+00	9.045491e-21	
1.445220e-02	2.018403e-02	9.668387e-01	0.000000e+00	0.000000e+00	2.437465e+00	1.000000e-10	9.994244e-01	3.714418e-02	8.742794e-02	9.948792e-01	0.000000e+00	9.749860e-01	1.008422e+00	-1.588336e+00	0.000000e+00	0.000000e+00	6.628644e-03	-2.085573e-06	3.568240e+00	9.251971e-21	
2.280944e-02	2.495170e-02	9.727558e-01	0.000000e+00	0.000000e+00	2.451568e+00	1.000000e-10	9.995556e-01	4.383149e-02	1.643714e-01	9.831830e-01	0.000000e+00	9.806271e-01	1.008087e+00	-1.230174e+00	0.000000e+00	0.000000e+00	5.199018e-03	-1.862671e-06	3.009539e+00	9.487808e-21	
3.444509e-02	3.006547e-02	9.778268e-01	0.000000e+00	0.000000e+00	2.460788e+00	1.000000e-10	9.996909e-01	1.175609e-01	5.351714e-01	9.373833e-01	0.000000e+00	9.843151e-01	1.006631e+00	-9.960143e-01	0.000000e+00	0.000000e+00	2.674342e-03	1.059973e-06	2.080713e+00	9.719502e-21	
5.022241e-02	3.543267e-02	9.831722e-01	0.000000e+00	0.000000e+00	2.474423e+00	1.000000e-10	9.992751e-01	2.718818e-02	2.556374e-01	9.867946e-01	0.000000e+00	9.897693e-01	1.006706e+00	-6.497184e-01	0.000000e+00	0.000000e+00	5.308204e-03	-1.835176e-06	2.849640e+00	9.932092e-21	
7.115831e-02	4.091264e-02	9.856370e-01	0.000000e+00	0.000000e+00	2.478387e+00	1.000000e-10	9.999683e-01	1.599611e-01	7.805679e-01	9.317370e-01	0.000000e+00	9.913546e-01	1.005797e+00	-5.490636e-01	0.000000e+00	0.000000e+00	1.842475e-03	2.434917e-07	1.643077e+00	1.005296e-20	
9.838552e-02	4.628967e-02	9.869267e-01	0.000000e+00	0.000000e+00	2.481787e+00	1.000000e-10	9.999780e-01	1.099585e-01	8.075316e-01	9.936701e-01	0.000000e+00	9.927148e-01	1.005860e+00	-4.627039e-01	0.000000e+00	0.000000e+00	2.072309e-03	-2.535126e-07	1.713065e+00	1.010421e-20	
1.330575e-01	5.125403e-02	9.868309e-01	0.000000e+00	0.000000e+00	2.482574e+00	1.000000e-10	9.999987e-01	1.241756e-01	9.101129e-01	9.923902e-01	0.000000e+00	9.930294e-01	1.006277e+00	-4.427261e-01	0.000000e+00	0.000000e+00	1.770554e-03	-6.082207e-08	1.562165e+00	1.009066e-20	
1.761797e-01	5.540400e-02	9.874615e-01	0.000000e+00	0.000000e+00	2.482818e+00	1.000000e-10	9.999982e-01	1.377082e-01	9.661968e-01	9.974487e-01	0.000000e+00	9.931273e-01	1.005733e+00	-4.365142e-01	0.000000e+00	0.000000e+00	1.561120e-03	-6.726891e-08	1.453800e+00	1.012907e-20	
2.283666e-01	5.828472e-02	9.879730e-01	0.000000e+00	0.000000e+00	2.483283e+00	1.000000e-10	9.999989e-01	1.793740e-01	9.938386e-01	9.996578e-01	0.000000e+00	9.933134e-01	1.005401e+00	-4.246973e-01	0.000000e+00	0.000000e+00	1.298086e-03	-2.285225e-08	1.317119e+00	1.015781e-20	
2.895540e-01	5.947265e-02	9.885002e-01	0.000000e+00	0.000000e+00	2.483123e+00	1.000000e-10	9.999985e-01	2.661424e-01	9.999480e-01	9.999980e-01	0.000000e+00	9.932494e-01	1.004800e+00	-4.287617e-01	0.000000e+00	0.000000e+00	1.036145e-03	2.508645e-08	1.171868e+00	1.019354e-20	
3.587470e-01	5.869148e-02	9.889847e-01	0.000000e+00	0.000000e+00	2.482861e+00	1.000000e-10	9.999799e-01	3.923535e-01	9.991760e-01	9.999991e-01	0.000000e+00	9.931444e-01	1.004202e+00	-4.354282e-01	0.000000e+00	0.000000e+00	8.553067e-04	1.903422e-07	1.062062e+00	1.022758e-20	
4.339121e-01	5.591460e-02	9.883073e-01	0.000000e+00	0.000000e+00	2.481268e+00	1.000000e-10	1.000000e+00	9.962306e-01	9.999801e-01	9.999993e-01	0.000000e+00	9.925071e-01	1.004245e+00	-4.758926e-01	0.000000e+00	0.000000e+00	5.022655e-05	1.016698e-09	2.568171e-01	1.019857e-20	
5.121166e-01	5.139795e-02	9.876119e-01	0.000000e+00	0.000000e+00	2.479706e+00	1.000000e-10	1.000000e+00	9.950557e-01	9.999795e-01	9.999996e-01	0.000000e+00	9.918822e-01	1.004320e+00	-5.155651e-01	0.000000e+00	0.000000e+00	7.266595e-05	2.918871e-08	3.086217e-01	1.016816e-20	
5.899328e-01	4.561861e-02	9.875907e-01	0.000000e+00	0.000000e+00	2.479017e+00	1.000000e-10	9.999984e-01	8.483645e-01	9.989010e-01	1.000000e+00	0.000000e+00	9.916070e-01	1.004062e+00	-5.330408e-01	0.000000e+00	0.000000e+00	5.551947e-04	1.014884e-07	8.538395e-01	1.017329e-20	
6.640066e-01	3.915032e-02	9.877549e-01	0.000000e+00	0.000000e+00	2.478854e+00	1.000000e-10	9.999997e-01	8.121785e-01	9.981015e-01	9.999997e-01	0.000000e+00	9.915414e-01	1.003829e+00	-5.372020e-01	0.000000e+00	0.000000e+00	8.264574e-04	6.133076e-08	1.044112e+00	1.018550e-20	
7.316032e-01	3.253806e-02	9.882706e-01	0.000000e+00	0.000000e+00	2.480471e+00	1.000000e-10	9.999993e-01	8.653032e-01	9.984159e-01	9.999994e-01	0.000000e+00	9.921884e-01	1.003960e+00	-4.961234e-01	0.000000e+00	0.000000e+00	8.988397e-04	5.450290e-08	1.092825e+00	1.020372e-20	
7.909518e-01	2.621660e-02	9.888542e-01	0.000000e+00	0.000000e+00	2.482728e+00	1.000000e-10	9.999999e-01	9.530248e-01	9.993994e-01	9.999989e-01	0.000000e+00	9.930912e-01	1.004280e+00	-4.388051e-01	0.000000e+00	0.000000e+00	6.796149e-04	3.114501e-08	9.552728e-01	1.022033e-20	
8.413160e-01	2.048016e-02	9.893286e-01	0.000000e+00	0.000000e+00	2.484043e+00	1.000000e-10	1.000000e+00	9.926389e-01	9.998965e-01	9.999997e-01	0.000000e+00	9.936171e-01	1.004330e+00	-4.054149e-01	0.000000e+00	0.000000e+00	3.628135e-04	3.266907e-08	7.033060e-01	1.023878e-20	
8.828360e-01	1.548810e-02	9.897144e-01	0.000000e+00	0.000000e+00	2.484690e+00	1.000000e-10	1.000000e+00	9.988306e-01	9.999820e-01	1.000000e+00	0.000000e+00	9.938760e-01	1.004201e+00	-3.889746e-01	0.000000e+00	0.000000e+00	2.054611e-04	4.595941e-08	5.348547e-01	1.025782e-20	
9.162555e-01	1.128962e-02	9.899202e-01	0.000000e+00	0.000000e+00	2.485070e+00	1.000000e-10	1.000000e+00	9.998428e-01	9.999974e-01	1.000000e+00	0.000000e+00	9.940282e-01	1.004145e+00	-3.793142e-01	0.000000e+00	0.000000e+00	1.117232e-04	4.540994e-08	3.999697e-01	1.026765e-20	
9.426407e-01	7.855481e-03	9.899817e-01	0.000000e+00	0.000000e+00	2.485448e+00	1.000000e-10	9.999998e-01	9.999268e-01	9.999988e-01	1.000000e+00	0.000000e+00	9.941794e-01	1.004236e+00	-3.697146e-01	0.000000e+00	0.000000e+00	1.176649e-04	3.693927e-08	4.181500e-01	1.026807e-20	
9.631568e-01	5.108981e-03	9.898607e-01	0.000000e+00	0.000000e+00	2.485677e+00	1.000000e-10	9.999997e-01	9.994053e-01	9.999891e-01	1.000000e+00	0.000000e+00	9.942709e-01	1.004451e+00	-3.639031e-01	0.000000e+00	0.000000e+00	5.364145e-04	1.697401e-08	9.149035e-01	1.025798e-20	
9.789211e-01	2.951446e-03	9.894947e-01	0.000000e+00	0.000000e+00	2.485542e+00	1.000000e-10	9.999999e-01	9.989425e-01	9.999798e-01	9.999996e-01	0.000000e+00	9.942167e-01	1.004768e+00	-3.673461e-01	0.000000e+00	0.000000e+00	1.178567e-03	-3.838260e-08	1.400276e+00	1.023538e-20	
9.909241e-01	1.280290e-03	9.890217e-01	0.000000e+00	0.000000e+00	2.484712e+00	1.000000e-10	9.999989e-01	9.985870e-01	9.999713e-01	9.999983e-01	0.000000e+00	9.938847e-01	1.004913e+00	-3.884232e-01	0.000000e+00	0.000000e+00	2.313998e-03	-4.556929e-07	2.046107e+00	1.021243e-20	
1	2
2	3
3	4
4	5
5	6
6	7
7	8
8	9
9	10
10	11
11	12
12	13
13	14
14	15
15	16
16	17
17	18
18	19
19	20
20	21
21	22
22	23
23	24
24	25
25	26
26	27
27	28
28	29
29	30
30	31
31	32
32	33
33	34
34	35
35	36
36	37
37	38
38	39
39	40
40	41
41	42
42	43
43	44
44	45
45	46
46	47
47	48
48	49
49	50
50	51
51	52
52	53
53	54
54	55
55	56
56	57
57	58
58	59
59	60
60	61
61	62
62	63
63	64
64	1
