TITLE = "Visualization of the volumetric solution"
VARIABLES = "x","y","Conservative_1","Conservative_2","Conservative_3","Conservative_4","Conservative_5","Pressure","Temperature","Pressure_Coefficient","Mach","Laminar_Viscosity", "Skin_Friction_Coefficient", "Heat_Flux", "Y_Plus", "Eddy_Viscosity"
ZONE NODES= 3704, ELEMENTS= 3584, DATAPACKING=POINT, ZONETYPE=FEQUADRILATERAL
5.010000e+02	5.352203e-08	1.000002e+00	1.775689e-01	5.747061e-11	2.515772e+00	1.584405e-05	1.000003e+00	9.999963e-01	1.390707e-05	1.500727e-01	0.000000e+00	0.000000e+00	0.000000e+00	0.000000e+00	1.584199e-05	
3.278693e+02	5.352203e-08	1.000005e+00	1.777680e-01	9.934315e-11	2.515807e+00	2.081739e-05	1.000003e+00	9.999930e-01	2.018470e-05	1.502408e-01	0.000000e+00	0.000000e+00	0.000000e+00	0.000000e+00	2.081495e-05	
2.146849e+02	5.352203e-08	1.000010e+00	1.777636e-01	1.593831e-10	2.515807e+00	2.559411e-05	1.000003e+00	9.999887e-01	2.060077e-05	1.502367e-01	0.000000e+00	0.000000e+00	0.000000e+00	0.000000e+00	2.559080e-05	
1.406904e+02	5.352203e-08	1.000015e+00	1.775514e-01	2.559954e-10	2.515769e+00	3.171313e-05	1.000003e+00	9.999838e-01	2.156413e-05	1.500570e-01	0.000000e+00	0.000000e+00	0.000000e+00	0.000000e+00	3.170886e-05	
9.231638e+01	5.352203e-08	1.000018e+00	1.770570e-01	4.058148e-10	2.515682e+00	3.864240e-05	1.000003e+00	9.999802e-01	3.183851e-05	1.496389e-01	0.000000e+00	0.000000e+00	0.000000e+00	0.000000e+00	3.863735e-05	
6.069179e+01	5.352203e-08	1.000018e+00	1.761264e-01	6.394204e-10	2.515518e+00	4.526861e-05	1.000003e+00	9.999809e-01	5.339036e-05	1.488524e-01	0.000000e+00	0.000000e+00	0.000000e+00	0.000000e+00	4.526316e-05	
4.001717e+01	5.352203e-08	1.000007e+00	1.745337e-01	9.997820e-10	2.515240e+00	5.126058e-05	1.000003e+00	9.999917e-01	6.912389e-05	1.475071e-01	0.000000e+00	0.000000e+00	0.000000e+00	0.000000e+00	5.125455e-05	
2.650110e+01	5.352203e-08	9.999755e-01	1.720161e-01	1.540209e-09	2.514802e+00	5.462820e-05	1.000003e+00	1.000023e+00	2.903766e-05	1.453817e-01	0.000000e+00	0.000000e+00	0.000000e+00	0.000000e+00	5.462096e-05	
1.766495e+01	5.352203e-08	9.999083e-01	1.683767e-01	2.321407e-09	2.514177e+00	5.511632e-05	1.000000e+00	1.000088e+00	-1.340415e-04	1.423108e-01	0.000000e+00	0.000000e+00	0.000000e+00	0.000000e+00	5.510693e-05	
1.188831e+01	5.352203e-08	9.997958e-01	1.636444e-01	3.424744e-09	2.513383e+00	5.224596e-05	9.999961e-01	1.000196e+00	-3.978596e-04	1.383192e-01	0.000000e+00	0.000000e+00	0.000000e+00	0.000000e+00	5.223249e-05	
8.111817e+00	5.352203e-08	9.996407e-01	1.582142e-01	4.970853e-09	2.512506e+00	4.649848e-05	9.999943e-01	1.000349e+00	-5.129120e-04	1.337398e-01	0.000000e+00	0.000000e+00	0.000000e+00	0.000000e+00	4.648016e-05	
5.642931e+00	5.352203e-08	9.994691e-01	1.526703e-01	7.107064e-09	2.511660e+00	4.064077e-05	9.999999e-01	1.000527e+00	-1.555256e-04	1.290642e-01	0.000000e+00	0.000000e+00	0.000000e+00	0.000000e+00	4.061822e-05	
4.028892e+00	5.352203e-08	9.993000e-01	1.473617e-01	9.925055e-09	2.510908e+00	3.483430e-05	1.000017e+00	1.000713e+00	9.345107e-04	1.245859e-01	0.000000e+00	0.000000e+00	0.000000e+00	0.000000e+00	3.480949e-05	
2.973712e+00	5.352203e-08	9.991385e-01	1.423038e-01	1.345987e-08	2.510254e+00	3.019182e-05	1.000048e+00	1.000906e+00	2.905301e-03	1.203176e-01	0.000000e+00	0.000000e+00	0.000000e+00	0.000000e+00	3.016573e-05	
2.283886e+00	5.352203e-08	9.989831e-01	1.372986e-01	1.755667e-08	2.509668e+00	2.624405e-05	1.000093e+00	1.001107e+00	5.768490e-03	1.160921e-01	0.000000e+00	0.000000e+00	0.000000e+00	0.000000e+00	2.621735e-05	
1.832911e+00	5.352203e-08	9.988485e-01	1.320789e-01	2.193205e-08	2.509158e+00	2.322644e-05	1.000170e+00	1.001319e+00	1.064664e-02	1.116819e-01	0.000000e+00	0.000000e+00	0.000000e+00	0.000000e+00	2.319968e-05	
1.538086e+00	5.352203e-08	9.987724e-01	1.262920e-01	2.683072e-08	2.508798e+00	2.074670e-05	1.000325e+00	1.001550e+00	2.049321e-02	1.067845e-01	0.000000e+00	0.000000e+00	0.000000e+00	0.000000e+00	2.072121e-05	
1.345344e+00	5.352203e-08	9.987748e-01	1.195676e-01	3.320133e-08	2.508619e+00	1.858597e-05	1.000585e+00	1.001808e+00	3.698423e-02	1.010855e-01	0.000000e+00	0.000000e+00	0.000000e+00	0.000000e+00	1.856317e-05	
1.219338e+00	5.352203e-08	9.988519e-01	1.116535e-01	4.172670e-08	2.508591e+00	1.652986e-05	1.000940e+00	1.002086e+00	5.953560e-02	9.437433e-02	0.000000e+00	0.000000e+00	0.000000e+00	0.000000e+00	1.651085e-05	
1.136961e+00	5.352203e-08	9.990172e-01	1.024238e-01	5.164993e-08	2.508769e+00	1.447722e-05	1.001407e+00	1.002388e+00	8.919578e-02	8.654558e-02	0.000000e+00	0.000000e+00	0.000000e+00	0.000000e+00	1.446295e-05	
1.083108e+00	5.352203e-08	9.992729e-01	9.179647e-02	6.222506e-08	2.509183e+00	1.240650e-05	1.001987e+00	1.002712e+00	1.259949e-01	7.753341e-02	0.000000e+00	0.000000e+00	0.000000e+00	0.000000e+00	1.239742e-05	
1.047901e+00	5.352203e-08	9.995665e-01	7.948913e-02	7.351405e-08	2.509674e+00	1.034025e-05	1.002605e+00	1.003036e+00	1.652665e-01	6.710778e-02	0.000000e+00	0.000000e+00	0.000000e+00	0.000000e+00	1.033568e-05	
1.024884e+00	5.352203e-08	9.996944e-01	6.416563e-02	8.283323e-08	2.509537e+00	8.061235e-06	1.002991e+00	1.003293e+00	1.897516e-01	5.415721e-02	0.000000e+00	0.000000e+00	0.000000e+00	0.000000e+00	8.058628e-06	
1.009837e+00	5.352203e-08	9.997284e-01	4.043438e-02	7.510396e-08	2.509072e+00	5.126877e-06	1.003302e+00	1.003570e+00	2.094804e-01	3.412165e-02	0.000000e+00	0.000000e+00	0.000000e+00	0.000000e+00	5.125129e-06	
1.000000e+00	5.352203e-08	9.992319e-01	0.000000e+00	0.000000e+00	2.508121e+00	1.000000e-10	1.003248e+00	1.004015e+00	2.060899e-01	0.000000e+00	0.000000e+00	1.522503e-08	-8.370371e-10	5.131895e+00	1.066264e-20	
9.909241e-01	-1.280290e-03	9.990347e-01	0.000000e+00	0.000000e+00	2.506912e+00	1.000000e-10	1.002765e+00	1.003729e+00	1.753785e-01	0.000000e+00	0.000000e+00	6.354018e-04	-5.381807e-08	1.078578e+00	1.066123e-20	
9.789211e-01	-2.951446e-03	9.983725e-01	0.000000e+00	0.000000e+00	2.505630e+00	1.000000e-10	1.002252e+00	1.003882e+00	1.428363e-01	0.000000e+00	0.000000e+00	1.070950e-03	-4.929174e-08	1.341698e+00	1.062927e-20	
9.631568e-01	-5.108981e-03	9.977878e-01	0.000000e+00	0.000000e+00	2.504270e+00	1.000000e-10	1.001708e+00	1.003924e+00	1.082836e-01	0.000000e+00	0.000000e+00	1.440205e-03	-8.875492e-08	1.505720e+00	1.060335e-20	
9.426407e-01	-7.855481e-03	9.973150e-01	0.000000e+00	0.000000e+00	2.503102e+00	1.000000e-10	1.001241e+00	1.003932e+00	7.862816e-02	0.000000e+00	0.000000e+00	1.716694e-03	-1.240535e-07	1.603462e+00	1.058308e-20	
9.162555e-01	-1.128962e-02	9.969506e-01	0.000000e+00	0.000000e+00	2.502176e+00	1.000000e-10	1.000871e+00	1.003928e+00	5.511957e-02	0.000000e+00	0.000000e+00	1.922736e-03	-1.504786e-07	1.665422e+00	1.056773e-20	
8.828360e-01	-1.548810e-02	9.965796e-01	0.000000e+00	0.000000e+00	2.501088e+00	1.000000e-10	1.000435e+00	1.003865e+00	2.747839e-02	0.000000e+00	0.000000e+00	2.084130e-03	-1.631489e-07	1.709803e+00	1.055353e-20	
8.413160e-01	-2.048016e-02	9.962005e-01	0.000000e+00	0.000000e+00	2.499900e+00	1.000000e-10	9.999601e-01	1.003770e+00	-2.683951e-03	0.000000e+00	0.000000e+00	2.216555e-03	-1.657265e-07	1.745144e+00	1.053978e-20	
7.909518e-01	-2.621660e-02	9.957730e-01	0.000000e+00	0.000000e+00	2.498652e+00	1.000000e-10	9.994606e-01	1.003699e+00	-3.439665e-02	0.000000e+00	0.000000e+00	2.313157e-03	-1.750142e-07	1.769318e+00	1.052341e-20	
7.316032e-01	-3.253806e-02	9.952577e-01	0.000000e+00	0.000000e+00	2.497324e+00	1.000000e-10	9.989298e-01	1.003685e+00	-6.810380e-02	0.000000e+00	0.000000e+00	2.376336e-03	-1.924571e-07	1.783547e+00	1.050198e-20	
6.640066e-01	-3.915032e-02	9.946456e-01	0.000000e+00	0.000000e+00	2.495878e+00	1.000000e-10	9.983511e-01	1.003721e+00	-1.048436e-01	0.000000e+00	0.000000e+00	2.434197e-03	-2.105005e-07	1.798292e+00	1.047530e-20	
5.899328e-01	-4.561861e-02	9.939555e-01	0.000000e+00	0.000000e+00	2.494298e+00	1.000000e-10	9.977193e-01	1.003782e+00	-1.449605e-01	0.000000e+00	0.000000e+00	2.543120e-03	-2.354548e-07	1.833686e+00	1.044479e-20	
5.121166e-01	-5.139795e-02	9.931921e-01	0.000000e+00	0.000000e+00	2.492542e+00	1.000000e-10	9.970168e-01	1.003847e+00	-1.895623e-01	0.000000e+00	0.000000e+00	2.775826e-03	-2.798775e-07	1.913541e+00	1.041121e-20	
4.339121e-01	-5.591460e-02	9.923115e-01	0.000000e+00	0.000000e+00	2.490610e+00	1.000000e-10	9.962440e-01	1.003959e+00	-2.386297e-01	0.000000e+00	0.000000e+00	3.065620e-03	-3.428690e-07	2.010896e+00	1.037166e-20	
3.587470e-01	-5.869148e-02	9.914237e-01	0.000000e+00	0.000000e+00	2.488554e+00	1.000000e-10	9.954214e-01	1.004028e+00	-2.908545e-01	0.000000e+00	0.000000e+00	3.487684e-03	-4.397850e-07	2.147583e+00	1.033295e-20	
2.895540e-01	-5.947265e-02	9.905192e-01	0.000000e+00	0.000000e+00	2.486398e+00	1.000000e-10	9.945590e-01	1.004074e+00	-3.456098e-01	0.000000e+00	0.000000e+00	3.966127e-03	-5.735425e-07	2.296339e+00	1.029420e-20	
2.283666e-01	-5.828472e-02	9.896220e-01	0.000000e+00	0.000000e+00	2.484253e+00	1.000000e-10	9.937012e-01	1.004118e+00	-4.000738e-01	0.000000e+00	0.000000e+00	4.462816e-03	-7.499176e-07	2.446617e+00	1.025593e-20	
1.761797e-01	-5.540400e-02	9.888819e-01	0.000000e+00	0.000000e+00	2.482405e+00	1.000000e-10	9.929620e-01	1.004122e+00	-4.470077e-01	0.000000e+00	0.000000e+00	5.006719e-03	-9.809742e-07	2.608616e+00	1.022519e-20	
1.330575e-01	-5.125403e-02	9.884834e-01	0.000000e+00	0.000000e+00	2.481343e+00	1.000000e-10	9.925373e-01	1.004097e+00	-4.739741e-01	0.000000e+00	0.000000e+00	5.619116e-03	-1.268284e-06	2.789928e+00	1.020930e-20	
9.838552e-02	-4.628967e-02	9.884573e-01	0.000000e+00	0.000000e+00	2.481163e+00	1.000000e-10	9.924652e-01	1.004050e+00	-4.785494e-01	0.000000e+00	0.000000e+00	6.296368e-03	-1.613291e-06	2.992464e+00	1.020931e-20	
7.115831e-02	-4.091264e-02	9.887088e-01	0.000000e+00	0.000000e+00	2.481667e+00	1.000000e-10	9.926667e-01	1.003999e+00	-4.657566e-01	0.000000e+00	0.000000e+00	6.982768e-03	-2.000793e-06	3.208067e+00	1.022091e-20	
5.022241e-02	-3.543267e-02	9.892692e-01	0.000000e+00	0.000000e+00	2.482871e+00	1.000000e-10	9.931483e-01	1.003917e+00	-4.351809e-01	0.000000e+00	0.000000e+00	7.631667e-03	-2.426322e-06	3.434738e+00	1.024604e-20	
3.444509e-02	-3.006547e-02	9.902234e-01	0.000000e+00	0.000000e+00	2.485033e+00	1.000000e-10	9.940134e-01	1.003823e+00	-3.802531e-01	0.000000e+00	0.000000e+00	8.088569e-03	-2.801198e-06	3.649277e+00	1.028783e-20	
2.280944e-02	-2.495170e-02	9.919600e-01	0.000000e+00	0.000000e+00	2.488545e+00	1.000000e-10	9.954181e-01	1.003482e+00	-2.910655e-01	0.000000e+00	0.000000e+00	8.601850e-03	-3.308978e-06	3.922902e+00	1.036832e-20	
1.445220e-02	-2.018403e-02	9.939332e-01	0.000000e+00	0.000000e+00	2.494238e+00	1.000000e-10	9.976953e-01	1.003781e+00	-1.464821e-01	0.000000e+00	0.000000e+00	8.924135e-03	-4.056016e-06	4.212741e+00	1.044389e-20	
8.660978e-03	-1.583433e-02	9.984394e-01	0.000000e+00	0.000000e+00	2.501661e+00	1.000000e-10	1.000665e+00	1.002224e+00	4.204376e-02	0.000000e+00	0.000000e+00	7.567529e-03	-3.095601e-06	4.159811e+00	1.067269e-20	
4.844550e-03	-1.197282e-02	1.000849e+00	0.000000e+00	0.000000e+00	2.511525e+00	1.000000e-10	1.004610e+00	1.003753e+00	2.925364e-01	0.000000e+00	0.000000e+00	8.814108e-03	-4.800342e-06	4.878770e+00	1.073829e-20	
2.493434e-03	-8.666020e-03	1.006950e+00	0.000000e+00	0.000000e+00	2.521225e+00	1.000000e-10	1.008490e+00	1.001526e+00	5.389059e-01	0.000000e+00	0.000000e+00	1.119095e-02	-6.616500e-06	6.118486e+00	1.105901e-20	
1.159193e-03	-5.950300e-03	1.013004e+00	0.000000e+00	0.000000e+00	2.538804e+00	1.000000e-10	1.015522e+00	1.002481e+00	9.853431e-01	0.000000e+00	0.000000e+00	1.485137e-02	-1.446093e-05	7.991985e+00	1.130250e-20	
4.691284e-04	-3.805771e-03	1.015451e+00	0.000000e+00	0.000000e+00	2.538940e+00	1.000000e-10	1.015576e+00	1.000119e+00	9.888028e-01	0.000000e+00	0.000000e+00	2.554685e-03	-1.009053e-06	3.845709e+00	1.147436e-20	
1.500786e-04	-2.161300e-03	1.008917e+00	0.000000e+00	0.000000e+00	2.531753e+00	1.000000e-10	1.012701e+00	1.003747e+00	8.062840e-01	0.000000e+00	0.000000e+00	5.690480e-03	5.085443e-06	6.748781e+00	1.108893e-20	
2.721276e-05	-9.231024e-04	1.005412e+00	0.000000e+00	0.000000e+00	2.534092e+00	1.000000e-10	1.013637e+00	1.008176e+00	8.656699e-01	0.000000e+00	0.000000e+00	3.473151e-03	-1.099539e-05	6.340589e+00	1.082527e-20	
0.000000e+00	0.000000e+00	9.996839e-01	0.000000e+00	0.000000e+00	2.533845e+00	1.000000e-10	1.013538e+00	1.013854e+00	8.593965e-01	0.000000e+00	0.000000e+00	1.238623e-06	-7.075270e-06	1.455136e-01	1.044485e-20	
2.721276e-05	9.231024e-04	1.005410e+00	0.000000e+00	0.000000e+00	2.534091e+00	1.000000e-10	1.013636e+00	1.008178e+00	8.656512e-01	0.000000e+00	0.000000e+00	3.471119e-03	-1.099546e-05	6.338720e+00	1.082515e-20	
1.500786e-04	2.161300e-03	1.008917e+00	0.000000e+00	0.000000e+00	2.531753e+00	1.000000e-10	1.012701e+00	1.003746e+00	8.062821e-01	0.000000e+00	0.000000e+00	5.690252e-03	5.086631e-06	6.748650e+00	1.108895e-20	
4.691284e-04	3.805771e-03	1.015449e+00	0.000000e+00	0.000000e+00	2.538938e+00	1.000000e-10	1.015575e+00	1.000120e+00	9.887506e-01	0.000000e+00	0.000000e+00	2.553681e-03	-1.010108e-06	3.844948e+00	1.147426e-20	
1.159193e-03	5.950300e-03	1.013004e+00	0.000000e+00	0.000000e+00	2.538804e+00	1.000000e-10	1.015522e+00	1.002481e+00	9.853531e-01	0.000000e+00	0.000000e+00	1.485134e-02	-1.445893e-05	7.991980e+00	1.130253e-20	
2.493434e-03	8.666020e-03	1.006950e+00	0.000000e+00	0.000000e+00	2.521226e+00	1.000000e-10	1.008490e+00	1.001526e+00	5.389091e-01	0.000000e+00	0.000000e+00	1.119098e-02	-6.616564e-06	6.118496e+00	1.105902e-20	
4.844550e-03	1.197282e-02	1.000849e+00	0.000000e+00	0.000000e+00	2.511525e+00	1.000000e-10	1.004610e+00	1.003753e+00	2.925423e-01	0.000000e+00	0.000000e+00	8.813985e-03	-4.800196e-06	4.878737e+00	1.073830e-20	
8.660978e-03	1.583433e-02	9.984396e-01	0.000000e+00	0.000000e+00	2.501662e+00	1.000000e-10	1.000665e+00	1.002224e+00	4.204962e-02	0.000000e+00	0.000000e+00	7.567477e-03	-3.095573e-06	4.159797e+00	1.067270e-20	
1.445220e-02	2.018403e-02	9.939334e-01	0.000000e+00	0.000000e+00	2.494238e+00	1.000000e-10	9.976954e-01	1.003781e+00	-1.464763e-01	0.000000e+00	0.000000e+00	8.924057e-03	-4.055955e-06	4.212723e+00	1.044390e-20	
2.280944e-02	2.495170e-02	9.919602e-01	0.000000e+00	0.000000e+00	2.488545e+00	1.000000e-10	9.954182e-01	1.003482e+00	-2.910605e-01	0.000000e+00	0.000000e+00	8.601791e-03	-3.308936e-06	3.922889e+00	1.036833e-20	
3.444509e-02	3.006547e-02	9.902235e-01	0.000000e+00	0.000000e+00	2.485034e+00	1.000000e-10	9.940135e-01	1.003823e+00	-3.802486e-01	0.000000e+00	0.000000e+00	8.088522e-03	-2.801166e-06	3.649266e+00	1.028784e-20	
5.022241e-02	3.543267e-02	9.892693e-01	0.000000e+00	0.000000e+00	2.482871e+00	1.000000e-10	9.931483e-01	1.003917e+00	-4.351770e-01	0.000000e+00	0.000000e+00	7.631628e-03	-2.426299e-06	3.434730e+00	1.024604e-20	
7.115831e-02	4.091264e-02	9.887089e-01	0.000000e+00	0.000000e+00	2.481667e+00	1.000000e-10	9.926668e-01	1.003999e+00	-4.657532e-01	0.000000e+00	0.000000e+00	6.982736e-03	-2.000776e-06	3.208060e+00	1.022092e-20	
9.838552e-02	4.628967e-02	9.884574e-01	0.000000e+00	0.000000e+00	2.481163e+00	1.000000e-10	9.924653e-01	1.004050e+00	-4.785465e-01	0.000000e+00	0.000000e+00	6.296342e-03	-1.613278e-06	2.992458e+00	1.020931e-20	
1.330575e-01	5.125403e-02	9.884834e-01	0.000000e+00	0.000000e+00	2.481343e+00	1.000000e-10	9.925373e-01	1.004097e+00	-4.739714e-01	0.000000e+00	0.000000e+00	5.619096e-03	-1.268275e-06	2.789923e+00	1.020930e-20	
1.761797e-01	5.540400e-02	9.888819e-01	0.000000e+00	0.000000e+00	2.482405e+00	1.000000e-10	9.929620e-01	1.004122e+00	-4.470052e-01	0.000000e+00	0.000000e+00	5.006703e-03	-9.809681e-07	2.608612e+00	1.022519e-20	
2.283666e-01	5.828472e-02	9.896220e-01	0.000000e+00	0.000000e+00	2.484253e+00	1.000000e-10	9.937013e-01	1.004118e+00	-4.000717e-01	0.000000e+00	0.000000e+00	4.462804e-03	-7.499137e-07	2.446614e+00	1.025593e-20	
2.895540e-01	5.947265e-02	9.905192e-01	0.000000e+00	0.000000e+00	2.486398e+00	1.000000e-10	9.945591e-01	1.004074e+00	-3.456079e-01	0.000000e+00	0.000000e+00	3.966118e-03	-5.735401e-07	2.296336e+00	1.029420e-20	
3.587470e-01	5.869148e-02	9.914238e-01	0.000000e+00	0.000000e+00	2.488554e+00	1.000000e-10	9.954215e-01	1.004028e+00	-2.908527e-01	0.000000e+00	0.000000e+00	3.487678e-03	-4.397836e-07	2.147582e+00	1.033295e-20	
4.339121e-01	5.591460e-02	9.923115e-01	0.000000e+00	0.000000e+00	2.490610e+00	1.000000e-10	9.962440e-01	1.003959e+00	-2.386281e-01	0.000000e+00	0.000000e+00	3.065616e-03	-3.428681e-07	2.010895e+00	1.037166e-20	
5.121166e-01	5.139795e-02	9.931922e-01	0.000000e+00	0.000000e+00	2.492542e+00	1.000000e-10	9.970168e-01	1.003847e+00	-1.895608e-01	0.000000e+00	0.000000e+00	2.775823e-03	-2.798769e-07	1.913540e+00	1.041121e-20	
5.899328e-01	4.561861e-02	9.939555e-01	0.000000e+00	0.000000e+00	2.494298e+00	1.000000e-10	9.977193e-01	1.003782e+00	-1.449589e-01	0.000000e+00	0.000000e+00	2.543117e-03	-2.354543e-07	1.833685e+00	1.044479e-20	
6.640066e-01	3.915032e-02	9.946456e-01	0.000000e+00	0.000000e+00	2.495878e+00	1.000000e-10	9.983511e-01	1.003721e+00	-1.048420e-01	0.000000e+00	0.000000e+00	2.434194e-03	-2.105000e-07	1.798291e+00	1.047530e-20	
7.316032e-01	3.253806e-02	9.952578e-01	0.000000e+00	0.000000e+00	2.497324e+00	1.000000e-10	9.989298e-01	1.003685e+00	-6.810216e-02	0.000000e+00	0.000000e+00	2.376332e-03	-1.924563e-07	1.783545e+00	1.050198e-20	
7.909518e-01	2.621660e-02	9.957730e-01	0.000000e+00	0.000000e+00	2.498652e+00	1.000000e-10	9.994607e-01	1.003699e+00	-3.439493e-02	0.000000e+00	0.000000e+00	2.313151e-03	-1.750129e-07	1.769315e+00	1.052341e-20	
8.413160e-01	2.048016e-02	9.962006e-01	0.000000e+00	0.000000e+00	2.499900e+00	1.000000e-10	9.999602e-01	1.003770e+00	-2.682116e-03	0.000000e+00	0.000000e+00	2.216544e-03	-1.657250e-07	1.745139e+00	1.053978e-20	
8.828360e-01	1.548810e-02	9.965796e-01	0.000000e+00	0.000000e+00	2.501088e+00	1.000000e-10	1.000435e+00	1.003865e+00	2.748044e-02	0.000000e+00	0.000000e+00	2.084116e-03	-1.631479e-07	1.709797e+00	1.055354e-20	
9.162555e-01	1.128962e-02	9.969507e-01	0.000000e+00	0.000000e+00	2.502176e+00	1.000000e-10	1.000871e+00	1.003928e+00	5.512195e-02	0.000000e+00	0.000000e+00	1.922736e-03	-1.504794e-07	1.665422e+00	1.056773e-20	
9.426407e-01	7.855481e-03	9.973151e-01	0.000000e+00	0.000000e+00	2.503102e+00	1.000000e-10	1.001241e+00	1.003932e+00	7.863090e-02	0.000000e+00	0.000000e+00	1.716756e-03	-1.240614e-07	1.603491e+00	1.058308e-20	
9.631568e-01	5.108981e-03	9.977878e-01	0.000000e+00	0.000000e+00	2.504270e+00	1.000000e-10	1.001708e+00	1.003924e+00	1.082869e-01	0.000000e+00	0.000000e+00	1.440409e-03	-8.877590e-08	1.505826e+00	1.060335e-20	
9.789211e-01	2.951446e-03	9.983726e-01	0.000000e+00	0.000000e+00	2.505630e+00	1.000000e-10	1.002252e+00	1.003882e+00	1.428406e-01	0.000000e+00	0.000000e+00	1.071204e-03	-4.930978e-08	1.341857e+00	1.062927e-20	
9.909241e-01	1.280290e-03	9.990349e-01	0.000000e+00	0.000000e+00	2.506912e+00	1.000000e-10	1.002765e+00	1.003729e+00	1.753844e-01	0.000000e+00	0.000000e+00	6.342772e-04	-5.370513e-08	1.077623e+00	1.066124e-20	
5.010000e+02	-8.330143e-06	1.000002e+00	1.775689e-01	1.153475e-10	2.515772e+00	1.584419e-05	1.000003e+00	9.999963e-01	1.391037e-05	1.500727e-01	0.000000e+00	0.000000e+00	0.000000e+00	0.000000e+00	1.584213e-05	
3.278693e+02	-8.330188e-06	1.000005e+00	1.777680e-01	1.941649e-10	2.515807e+00	2.081756e-05	1.000003e+00	9.999930e-01	2.019003e-05	1.502408e-01	0.000000e+00	0.000000e+00	0.000000e+00	0.000000e+00	2.081512e-05	
2.146849e+02	-8.330258e-06	1.000010e+00	1.777636e-01	2.447269e-10	2.515807e+00	2.559436e-05	1.000003e+00	9.999887e-01	2.060546e-05	1.502367e-01	0.000000e+00	0.000000e+00	0.000000e+00	0.000000e+00	2.559104e-05	
1.406904e+02	-8.330364e-06	1.000015e+00	1.775514e-01	2.024366e-10	2.515769e+00	3.171346e-05	1.000003e+00	9.999838e-01	2.155793e-05	1.500570e-01	0.000000e+00	0.000000e+00	0.000000e+00	0.000000e+00	3.170918e-05	
9.231638e+01	-8.330527e-06	1.000018e+00	1.770570e-01	-1.002368e-10	2.515682e+00	3.864279e-05	1.000003e+00	9.999802e-01	3.179043e-05	1.496389e-01	0.000000e+00	0.000000e+00	0.000000e+00	0.000000e+00	3.863774e-05	
6.069179e+01	-8.330776e-06	1.000018e+00	1.761264e-01	-9.823924e-10	2.515518e+00	4.526904e-05	1.000003e+00	9.999809e-01	5.322456e-05	1.488524e-01	0.000000e+00	0.000000e+00	0.000000e+00	0.000000e+00	4.526359e-05	
4.001717e+01	-8.331157e-06	1.000007e+00	1.745336e-01	-2.825939e-09	2.515240e+00	5.126102e-05	1.000003e+00	9.999917e-01	6.869426e-05	1.475070e-01	0.000000e+00	0.000000e+00	0.000000e+00	0.000000e+00	5.125499e-05	
2.650110e+01	-8.331739e-06	9.999755e-01	1.720160e-01	-5.729164e-09	2.514802e+00	5.462860e-05	1.000003e+00	1.000023e+00	2.814665e-05	1.453816e-01	0.000000e+00	0.000000e+00	0.000000e+00	0.000000e+00	5.462137e-05	
1.766495e+01	-8.332630e-06	9.999083e-01	1.683766e-01	-8.799333e-09	2.514177e+00	5.511662e-05	1.000000e+00	1.000088e+00	-1.355436e-04	1.423107e-01	0.000000e+00	0.000000e+00	0.000000e+00	0.000000e+00	5.510723e-05	
1.188831e+01	-8.333993e-06	9.997958e-01	1.636443e-01	-7.362179e-09	2.513383e+00	5.224615e-05	9.999961e-01	1.000196e+00	-3.996771e-04	1.383191e-01	0.000000e+00	0.000000e+00	0.000000e+00	0.000000e+00	5.223268e-05	
8.111817e+00	-8.336078e-06	9.996407e-01	1.582141e-01	3.903069e-09	2.512506e+00	4.649859e-05	9.999943e-01	1.000349e+00	-5.142858e-04	1.337397e-01	0.000000e+00	0.000000e+00	0.000000e+00	0.000000e+00	4.648027e-05	
5.642931e+00	-8.339268e-06	9.994691e-01	1.526703e-01	2.287863e-08	2.511660e+00	4.064084e-05	9.999999e-01	1.000527e+00	-1.560580e-04	1.290642e-01	0.000000e+00	0.000000e+00	0.000000e+00	0.000000e+00	4.061829e-05	
4.028892e+00	-8.344146e-06	9.993000e-01	1.473617e-01	4.216691e-08	2.510908e+00	3.483433e-05	1.000017e+00	1.000713e+00	9.344898e-04	1.245859e-01	0.000000e+00	0.000000e+00	0.000000e+00	0.000000e+00	3.480952e-05	
2.973712e+00	-8.351608e-06	9.991385e-01	1.423038e-01	6.201440e-08	2.510254e+00	3.019183e-05	1.000048e+00	1.000906e+00	2.905345e-03	1.203176e-01	0.000000e+00	0.000000e+00	0.000000e+00	0.000000e+00	3.016574e-05	
2.283886e+00	-8.363023e-06	9.989831e-01	1.372986e-01	9.172643e-08	2.509668e+00	2.624405e-05	1.000093e+00	1.001107e+00	5.768513e-03	1.160921e-01	0.000000e+00	0.000000e+00	0.000000e+00	0.000000e+00	2.621736e-05	
1.832911e+00	-8.380482e-06	9.988485e-01	1.320789e-01	1.429506e-07	2.509158e+00	2.322644e-05	1.000170e+00	1.001319e+00	1.064665e-02	1.116819e-01	0.000000e+00	0.000000e+00	0.000000e+00	0.000000e+00	2.319968e-05	
1.538086e+00	-8.407189e-06	9.987724e-01	1.262920e-01	2.377146e-07	2.508798e+00	2.074670e-05	1.000325e+00	1.001550e+00	2.049322e-02	1.067845e-01	0.000000e+00	0.000000e+00	0.000000e+00	0.000000e+00	2.072121e-05	
1.345344e+00	-8.448041e-06	9.987748e-01	1.195676e-01	4.146830e-07	2.508619e+00	1.858597e-05	1.000585e+00	1.001808e+00	3.698424e-02	1.010855e-01	0.000000e+00	0.000000e+00	0.000000e+00	0.000000e+00	1.856317e-05	
1.219338e+00	-8.510530e-06	9.988519e-01	1.116536e-01	7.324906e-07	2.508591e+00	1.652986e-05	1.000940e+00	1.002086e+00	5.953561e-02	9.437434e-02	0.000000e+00	0.000000e+00	0.000000e+00	0.000000e+00	1.651085e-05	
1.136961e+00	-8.606114e-06	9.990172e-01	1.024238e-01	1.285017e-06	2.508769e+00	1.447723e-05	1.001407e+00	1.002388e+00	8.919581e-02	8.654560e-02	0.000000e+00	0.000000e+00	0.000000e+00	0.000000e+00	1.446296e-05	
1.083108e+00	-8.752324e-06	9.992729e-01	9.179647e-02	2.226692e-06	2.509183e+00	1.240651e-05	1.001987e+00	1.002712e+00	1.259949e-01	7.753342e-02	0.000000e+00	0.000000e+00	0.000000e+00	0.000000e+00	1.239743e-05	
1.047901e+00	-8.975970e-06	9.995665e-01	7.948904e-02	3.893617e-06	2.509674e+00	1.034026e-05	1.002605e+00	1.003036e+00	1.652669e-01	6.710770e-02	0.000000e+00	0.000000e+00	0.000000e+00	0.000000e+00	1.033569e-05	
1.024884e+00	-9.318067e-06	9.996944e-01	6.416537e-02	8.224068e-06	2.509537e+00	8.061265e-06	1.002991e+00	1.003293e+00	1.897511e-01	5.415700e-02	0.000000e+00	0.000000e+00	0.000000e+00	0.000000e+00	8.058658e-06	
1.009837e+00	-9.841350e-06	9.997299e-01	4.044291e-02	2.888188e-05	2.509076e+00	5.127017e-06	1.003303e+00	1.003570e+00	2.095755e-01	3.412880e-02	0.000000e+00	0.000000e+00	0.000000e+00	0.000000e+00	5.125277e-06	
1.000001e+00	-1.059646e-05	9.992243e-01	4.383833e-04	5.324072e-05	2.508096e+00	2.558604e-09	1.003238e+00	1.004013e+00	2.054454e-01	3.727657e-04	0.000000e+00	0.000000e+00	0.000000e+00	0.000000e+00	4.569468e-15	
9.909255e-01	-1.290311e-03	9.990325e-01	3.377788e-03	4.705770e-04	2.506902e+00	1.325929e-08	1.002759e+00	1.003725e+00	1.749996e-01	2.879748e-03	0.000000e+00	0.000000e+00	0.000000e+00	0.000000e+00	3.294434e-12	
9.789225e-01	-2.961055e-03	9.983766e-01	5.453618e-03	7.571055e-04	2.505647e+00	1.639003e-08	1.002253e+00	1.003878e+00	1.428882e-01	4.651896e-03	0.000000e+00	0.000000e+00	0.000000e+00	0.000000e+00	7.667068e-12	
9.631581e-01	-5.118287e-03	9.977969e-01	7.097977e-03	9.663234e-04	2.504304e+00	1.813995e-08	1.001711e+00	1.003919e+00	1.084971e-01	6.055724e-03	0.000000e+00	0.000000e+00	0.000000e+00	0.000000e+00	1.147448e-11	
9.426419e-01	-7.864564e-03	9.973306e-01	8.254388e-03	1.094863e-03	2.503156e+00	1.911460e-08	1.001249e+00	1.003924e+00	7.911918e-02	7.042348e-03	0.000000e+00	0.000000e+00	0.000000e+00	0.000000e+00	1.411841e-11	
9.162567e-01	-1.129854e-02	9.969758e-01	9.076904e-03	1.163586e-03	2.502258e+00	1.969265e-08	1.000886e+00	1.003918e+00	5.613033e-02	7.742451e-03	0.000000e+00	0.000000e+00	0.000000e+00	0.000000e+00	1.588181e-11	
8.828371e-01	-1.549690e-02	9.966215e-01	9.707117e-03	1.190047e-03	2.501216e+00	2.007388e-08	1.000467e+00	1.003854e+00	2.951806e-02	8.277497e-03	0.000000e+00	0.000000e+00	0.000000e+00	0.000000e+00	1.712515e-11	
8.413170e-01	-2.048888e-02	9.962710e-01	1.022418e-02	1.184547e-03	2.500105e+00	2.041921e-08	1.000021e+00	1.003760e+00	1.172046e-03	8.714984e-03	0.000000e+00	0.000000e+00	0.000000e+00	0.000000e+00	1.831173e-11	
7.909527e-01	-2.622526e-02	9.958892e-01	1.059628e-02	1.148981e-03	2.498974e+00	2.081353e-08	9.995668e-01	1.003688e+00	-2.765841e-02	9.028516e-03	0.000000e+00	0.000000e+00	0.000000e+00	0.000000e+00	1.973961e-11	
7.316040e-01	-3.254669e-02	9.954316e-01	1.083299e-02	1.090873e-03	2.497791e+00	2.128477e-08	9.990928e-01	1.003674e+00	-5.775370e-02	9.227126e-03	0.000000e+00	0.000000e+00	0.000000e+00	0.000000e+00	2.154864e-11	
6.640074e-01	-3.915893e-02	9.948706e-01	1.106111e-02	1.019228e-03	2.496473e+00	2.185446e-08	9.985644e-01	1.003709e+00	-9.129920e-02	9.418881e-03	0.000000e+00	0.000000e+00	0.000000e+00	0.000000e+00	2.389214e-11	
5.899335e-01	-4.562721e-02	9.942091e-01	1.153571e-02	9.395820e-04	2.494967e+00	2.257702e-08	9.979598e-01	1.003768e+00	-1.296894e-01	9.820210e-03	0.000000e+00	0.000000e+00	0.000000e+00	0.000000e+00	2.713302e-11	
5.121172e-01	-5.140655e-02	9.934435e-01	1.258572e-02	8.473806e-04	2.493211e+00	2.350917e-08	9.972525e-01	1.003830e+00	-1.745991e-01	1.071080e-02	0.000000e+00	0.000000e+00	0.000000e+00	0.000000e+00	3.179177e-11	
4.339125e-01	-5.592321e-02	9.925284e-01	1.390822e-02	6.883174e-04	2.491201e+00	2.452058e-08	9.964414e-01	1.003938e+00	-2.260972e-01	1.183427e-02	0.000000e+00	0.000000e+00	0.000000e+00	0.000000e+00	3.747161e-11	
3.587472e-01	-5.870011e-02	9.915678e-01	1.585013e-02	4.342673e-04	2.488977e+00	2.566997e-08	9.955400e-01	1.004002e+00	-2.833257e-01	1.348780e-02	0.000000e+00	0.000000e+00	0.000000e+00	0.000000e+00	4.481664e-11	
2.895540e-01	-5.948131e-02	9.905496e-01	1.807222e-02	2.310448e-05	2.486553e+00	2.685026e-08	9.945554e-01	1.004040e+00	-3.458392e-01	1.538847e-02	0.000000e+00	0.000000e+00	0.000000e+00	0.000000e+00	5.340736e-11	
2.283663e-01	-5.829342e-02	9.895109e-01	2.040796e-02	-5.899960e-04	2.484073e+00	2.802329e-08	9.935448e-01	1.004072e+00	-4.100020e-01	1.740256e-02	0.000000e+00	0.000000e+00	0.000000e+00	0.000000e+00	6.308301e-11	
1.761791e-01	-5.541274e-02	9.886349e-01	2.300170e-02	-1.485663e-03	2.481906e+00	2.932504e-08	9.926550e-01	1.004062e+00	-4.665001e-01	1.966449e-02	0.000000e+00	0.000000e+00	0.000000e+00	0.000000e+00	7.535653e-11	
1.330564e-01	-5.126281e-02	9.881183e-01	2.596286e-02	-2.801570e-03	2.480579e+00	3.083881e-08	9.920938e-01	1.004019e+00	-5.021337e-01	2.229059e-02	0.000000e+00	0.000000e+00	0.000000e+00	0.000000e+00	9.194116e-11	
9.838401e-02	-4.629852e-02	9.880173e-01	2.928654e-02	-4.664913e-03	2.480255e+00	3.263251e-08	9.919242e-01	1.003950e+00	-5.129026e-01	2.531764e-02	0.000000e+00	0.000000e+00	0.000000e+00	0.000000e+00	1.151782e-10	
7.115627e-02	-4.092154e-02	9.882663e-01	3.272475e-02	-7.165957e-03	2.480811e+00	3.458945e-08	9.920971e-01	1.003872e+00	-5.019225e-01	2.859359e-02	0.000000e+00	0.000000e+00	0.000000e+00	0.000000e+00	1.454659e-10	
5.021973e-02	-3.544162e-02	9.888890e-01	3.605640e-02	-1.043709e-02	2.482239e+00	3.676865e-08	9.926107e-01	1.003759e+00	-4.693151e-01	3.202048e-02	0.000000e+00	0.000000e+00	0.000000e+00	0.000000e+00	1.860919e-10	
3.444160e-02	-3.007446e-02	9.899295e-01	3.849774e-02	-1.446977e-02	2.484685e+00	3.897699e-08	9.935324e-01	1.003635e+00	-4.107940e-01	3.504875e-02	0.000000e+00	0.000000e+00	0.000000e+00	0.000000e+00	2.358124e-10	
2.280494e-02	-2.496067e-02	9.917789e-01	4.111332e-02	-1.999112e-02	2.488570e+00	4.201650e-08	9.950067e-01	1.003250e+00	-3.171882e-01	3.889408e-02	0.000000e+00	0.000000e+00	0.000000e+00	0.000000e+00	3.205882e-10	
1.444640e-02	-2.019287e-02	9.938686e-01	4.240206e-02	-2.683997e-02	2.494598e+00	4.535254e-08	9.973324e-01	1.003481e+00	-1.695244e-01	4.259973e-02	0.000000e+00	0.000000e+00	0.000000e+00	0.000000e+00	4.377408e-10	
8.653545e-03	-1.584284e-02	9.986064e-01	3.526250e-02	-2.934629e-02	2.502522e+00	4.410360e-08	1.000587e+00	1.001979e+00	3.713237e-02	3.878833e-02	0.000000e+00	0.000000e+00	0.000000e+00	0.000000e+00	4.006239e-10	
4.835131e-03	-1.198070e-02	1.001972e+00	3.862909e-02	-4.369333e-02	2.515000e+00	5.542791e-08	1.005321e+00	1.003338e+00	3.376999e-01	4.911104e-02	0.000000e+00	0.000000e+00	0.000000e+00	0.000000e+00	1.000723e-09	
2.481714e-03	-8.672921e-03	1.010701e+00	4.315649e-02	-7.076369e-02	2.532418e+00	4.029331e-08	1.011608e+00	1.000893e+00	7.368577e-01	6.927817e-02	0.000000e+00	0.000000e+00	0.000000e+00	0.000000e+00	2.941655e-10	