TITLE = "Visualization of the surface solution"
VARIABLES = "x""y""Conservative_1""Conservative_2""Conservative_3""Conservative_4""Conservative_5""Pressure""Temperature""Pressure_Coefficient""Mach""Laminar_Viscosity""Skin_Friction_Coefficient""Heat_Flux""Y_Plus""Eddy_Viscosity"
ZONE NODES= 1024, ELEMENTS= 1024, DATAPACKING=POINT, ZONETYPE=FELINESEG
1.000000e+00	5.352203e-08	9.967184e-01	0.000000e+00	0.000000e+00	2.504255e+00	1.000000e-10	1.001702e+00	1.004996e+00	1.079157e-01	0.000000e+00	0.000000e+00	9.756524e-05	2.839993e-08	2.083902e+01	1.053203e-20	
9.995049e-01	-7.016296e-05	9.974566e-01	0.000000e+00	0.000000e+00	2.504716e+00	1.000000e-10	1.001886e+00	1.004437e+00	1.196207e-01	0.000000e+00	0.000000e+00	4.890284e-03	-4.272765e-08	1.181259e-01	1.057683e-20	
9.990010e-01	-1.415917e-04	9.974736e-01	0.000000e+00	0.000000e+00	2.504651e+00	1.000000e-10	1.001860e+00	1.004394e+00	1.179626e-01	0.000000e+00	0.000000e+00	3.937902e-03	-2.845362e-08	1.060026e-01	1.057860e-20	
9.984880e-01	-2.142594e-04	9.975301e-01	0.000000e+00	0.000000e+00	2.504552e+00	1.000000e-10	1.001821e+00	1.004297e+00	1.154424e-01	0.000000e+00	0.000000e+00	3.230182e-03	-1.998690e-08	9.601564e-02	1.058335e-20	
9.979658e-01	-2.881795e-04	9.975573e-01	0.000000e+00	0.000000e+00	2.504499e+00	1.000000e-10	1.001800e+00	1.004248e+00	1.141137e-01	0.000000e+00	0.000000e+00	2.857044e-03	-1.618555e-08	9.030440e-02	1.058568e-20	
9.974343e-01	-3.633727e-04	9.975707e-01	0.000000e+00	0.000000e+00	2.504481e+00	1.000000e-10	1.001792e+00	1.004228e+00	1.136509e-01	0.000000e+00	0.000000e+00	2.683713e-03	-1.458139e-08	8.752424e-02	1.058675e-20	
9.968933e-01	-4.398587e-04	9.975759e-01	0.000000e+00	0.000000e+00	2.504482e+00	1.000000e-10	1.001793e+00	1.004223e+00	1.136801e-01	0.000000e+00	0.000000e+00	2.623072e-03	-1.404559e-08	8.653027e-02	1.058708e-20	
9.963426e-01	-5.176573e-04	9.975789e-01	0.000000e+00	0.000000e+00	2.504494e+00	1.000000e-10	1.001798e+00	1.004225e+00	1.139912e-01	0.000000e+00	0.000000e+00	2.615950e-03	-1.398548e-08	8.641273e-02	1.058717e-20	
9.957821e-01	-5.967887e-04	9.975815e-01	0.000000e+00	0.000000e+00	2.504509e+00	1.000000e-10	1.001804e+00	1.004228e+00	1.143692e-01	0.000000e+00	0.000000e+00	2.626281e-03	-1.407820e-08	8.658309e-02	1.058720e-20	
9.952116e-01	-6.772729e-04	9.975844e-01	0.000000e+00	0.000000e+00	2.504523e+00	1.000000e-10	1.001809e+00	1.004231e+00	1.147216e-01	0.000000e+00	0.000000e+00	2.637410e-03	-1.417822e-08	8.676629e-02	1.058726e-20	
9.946309e-01	-7.591305e-04	9.975876e-01	0.000000e+00	0.000000e+00	2.504535e+00	1.000000e-10	1.001814e+00	1.004232e+00	1.150228e-01	0.000000e+00	0.000000e+00	2.644236e-03	-1.424056e-08	8.687854e-02	1.058735e-20	
9.940399e-01	-8.423822e-04	9.975910e-01	0.000000e+00	0.000000e+00	2.504545e+00	1.000000e-10	1.001818e+00	1.004233e+00	1.152863e-01	0.000000e+00	0.000000e+00	2.646923e-03	-1.426641e-08	8.692278e-02	1.058748e-20	
9.934385e-01	-9.270489e-04	9.975946e-01	0.000000e+00	0.000000e+00	2.504555e+00	1.000000e-10	1.001822e+00	1.004233e+00	1.155295e-01	0.000000e+00	0.000000e+00	2.647069e-03	-1.426982e-08	8.692532e-02	1.058763e-20	
9.928263e-01	-1.013152e-03	9.975982e-01	0.000000e+00	0.000000e+00	2.504564e+00	1.000000e-10	1.001826e+00	1.004233e+00	1.157679e-01	0.000000e+00	0.000000e+00	2.646109e-03	-1.426347e-08	8.690969e-02	1.058778e-20	
9.922033e-01	-1.100711e-03	9.976019e-01	0.000000e+00	0.000000e+00	2.504574e+00	1.000000e-10	1.001830e+00	1.004233e+00	1.160083e-01	0.000000e+00	0.000000e+00	2.644871e-03	-1.425471e-08	8.688952e-02	1.058793e-20	
9.915693e-01	-1.189750e-03	9.976055e-01	0.000000e+00	0.000000e+00	2.504583e+00	1.000000e-10	1.001833e+00	1.004234e+00	1.162532e-01	0.000000e+00	0.000000e+00	2.643710e-03	-1.424663e-08	8.687059e-02	1.058808e-20	
9.909241e-01	-1.280290e-03	9.976092e-01	0.000000e+00	0.000000e+00	2.504593e+00	1.000000e-10	1.001837e+00	1.004234e+00	1.165021e-01	0.000000e+00	0.000000e+00	2.642708e-03	-1.423998e-08	8.685428e-02	1.058823e-20	
9.902676e-01	-1.372351e-03	9.976129e-01	0.000000e+00	0.000000e+00	2.504603e+00	1.000000e-10	1.001841e+00	1.004234e+00	1.167538e-01	0.000000e+00	0.000000e+00	2.641834e-03	-1.423446e-08	8.684006e-02	1.058839e-20	
9.895994e-01	-1.465958e-03	9.976167e-01	0.000000e+00	0.000000e+00	2.504613e+00	1.000000e-10	1.001845e+00	1.004234e+00	1.170073e-01	0.000000e+00	0.000000e+00	2.641042e-03	-1.422966e-08	8.682718e-02	1.058854e-20	
9.889195e-01	-1.561131e-03	9.976204e-01	0.000000e+00	0.000000e+00	2.504623e+00	1.000000e-10	1.001849e+00	1.004235e+00	1.172622e-01	0.000000e+00	0.000000e+00	2.640295e-03	-1.422527e-08	8.681504e-02	1.058869e-20	
9.882276e-01	-1.657893e-03	9.976242e-01	0.000000e+00	0.000000e+00	2.504633e+00	1.000000e-10	1.001853e+00	1.004235e+00	1.175181e-01	0.000000e+00	0.000000e+00	2.639572e-03	-1.422109e-08	8.680331e-02	1.058885e-20	
9.875237e-01	-1.756268e-03	9.976280e-01	0.000000e+00	0.000000e+00	2.504643e+00	1.000000e-10	1.001857e+00	1.004235e+00	1.177754e-01	0.000000e+00	0.000000e+00	2.638870e-03	-1.421709e-08	8.679192e-02	1.058900e-20	
9.868073e-01	-1.856277e-03	9.976318e-01	0.000000e+00	0.000000e+00	2.504654e+00	1.000000e-10	1.001861e+00	1.004235e+00	1.180340e-01	0.000000e+00	0.000000e+00	2.638191e-03	-1.421329e-08	8.678089e-02	1.058916e-20	
9.860785e-01	-1.957945e-03	9.976356e-01	0.000000e+00	0.000000e+00	2.504664e+00	1.000000e-10	1.001866e+00	1.004236e+00	1.182942e-01	0.000000e+00	0.000000e+00	2.637534e-03	-1.420968e-08	8.677024e-02	1.058931e-20	
9.853369e-01	-2.061293e-03	9.976395e-01	0.000000e+00	0.000000e+00	2.504674e+00	1.000000e-10	1.001870e+00	1.004236e+00	1.185560e-01	0.000000e+00	0.000000e+00	2.636902e-03	-1.420627e-08	8.675999e-02	1.058947e-20	
9.845824e-01	-2.166346e-03	9.976434e-01	0.000000e+00	0.000000e+00	2.504685e+00	1.000000e-10	1.001874e+00	1.004236e+00	1.188197e-01	0.000000e+00	0.000000e+00	2.636297e-03	-1.420310e-08	8.675019e-02	1.058963e-20	
9.838147e-01	-2.273128e-03	9.976473e-01	0.000000e+00	0.000000e+00	2.504695e+00	1.000000e-10	1.001878e+00	1.004236e+00	1.190854e-01	0.000000e+00	0.000000e+00	2.635717e-03	-1.420014e-08	8.674082e-02	1.058979e-20	
9.830337e-01	-2.381661e-03	9.976513e-01	0.000000e+00	0.000000e+00	2.504706e+00	1.000000e-10	1.001882e+00	1.004237e+00	1.193533e-01	0.000000e+00	0.000000e+00	2.635164e-03	-1.419739e-08	8.673186e-02	1.058996e-20	
9.822392e-01	-2.491970e-03	9.976553e-01	0.000000e+00	0.000000e+00	2.504716e+00	1.000000e-10	1.001886e+00	1.004237e+00	1.196235e-01	0.000000e+00	0.000000e+00	2.634635e-03	-1.419484e-08	8.672332e-02	1.059012e-20	
9.814309e-01	-2.604079e-03	9.976593e-01	0.000000e+00	0.000000e+00	2.504727e+00	1.000000e-10	1.001891e+00	1.004237e+00	1.198962e-01	0.000000e+00	0.000000e+00	2.634130e-03	-1.419249e-08	8.671517e-02	1.059029e-20	
9.806085e-01	-2.718011e-03	9.976634e-01	0.000000e+00	0.000000e+00	2.504738e+00	1.000000e-10	1.001895e+00	1.004237e+00	1.201714e-01	0.000000e+00	0.000000e+00	2.633649e-03	-1.419032e-08	8.670742e-02	1.059045e-20	
9.797720e-01	-2.833792e-03	9.976676e-01	0.000000e+00	0.000000e+00	2.504749e+00	1.000000e-10	1.001899e+00	1.004237e+00	1.204495e-01	0.000000e+00	0.000000e+00	2.633191e-03	-1.418832e-08	8.670003e-02	1.059062e-20	
9.789211e-01	-2.951446e-03	9.976717e-01	0.000000e+00	0.000000e+00	2.504760e+00	1.000000e-10	1.001904e+00	1.004238e+00	1.207304e-01	0.000000e+00	0.000000e+00	2.632754e-03	-1.418649e-08	8.669301e-02	1.059079e-20	
9.780556e-01	-3.070997e-03	9.976759e-01	0.000000e+00	0.000000e+00	2.504771e+00	1.000000e-10	1.001908e+00	1.004238e+00	1.210143e-01	0.000000e+00	0.000000e+00	2.632338e-03	-1.418481e-08	8.668632e-02	1.059097e-20	
9.771751e-01	-3.192471e-03	9.976802e-01	0.000000e+00	0.000000e+00	2.504782e+00	1.000000e-10	1.001913e+00	1.004238e+00	1.213014e-01	0.000000e+00	0.000000e+00	2.631942e-03	-1.418327e-08	8.667997e-02	1.059114e-20	
9.762796e-01	-3.315891e-03	9.976845e-01	0.000000e+00	0.000000e+00	2.504794e+00	1.000000e-10	1.001917e+00	1.004238e+00	1.215917e-01	0.000000e+00	0.000000e+00	2.631566e-03	-1.418188e-08	8.667396e-02	1.059132e-20	
9.753688e-01	-3.441283e-03	9.976889e-01	0.000000e+00	0.000000e+00	2.504805e+00	1.000000e-10	1.001922e+00	1.004239e+00	1.218855e-01	0.000000e+00	0.000000e+00	2.631209e-03	-1.418061e-08	8.666824e-02	1.059150e-20	
9.744424e-01	-3.568672e-03	9.976933e-01	0.000000e+00	0.000000e+00	2.504817e+00	1.000000e-10	1.001927e+00	1.004239e+00	1.221827e-01	0.000000e+00	0.000000e+00	2.630869e-03	-1.417946e-08	8.666282e-02	1.059168e-20	
9.735002e-01	-3.698084e-03	9.976978e-01	0.000000e+00	0.000000e+00	2.504829e+00	1.000000e-10	1.001932e+00	1.004239e+00	1.224834e-01	0.000000e+00	0.000000e+00	2.630546e-03	-1.417841e-08	8.665769e-02	1.059187e-20	
9.725420e-01	-3.829542e-03	9.977024e-01	0.000000e+00	0.000000e+00	2.504841e+00	1.000000e-10	1.001936e+00	1.004239e+00	1.227879e-01	0.000000e+00	0.000000e+00	2.630240e-03	-1.417747e-08	8.665283e-02	1.059206e-20	
9.715675e-01	-3.963073e-03	9.977070e-01	0.000000e+00	0.000000e+00	2.504853e+00	1.000000e-10	1.001941e+00	1.004240e+00	1.230960e-01	0.000000e+00	0.000000e+00	2.629950e-03	-1.417663e-08	8.664824e-02	1.059225e-20	
9.705766e-01	-4.098702e-03	9.977116e-01	0.000000e+00	0.000000e+00	2.504865e+00	1.000000e-10	1.001946e+00	1.004240e+00	1.234080e-01	0.000000e+00	0.000000e+00	2.629675e-03	-1.417586e-08	8.664389e-02	1.059244e-20	
9.695688e-01	-4.236454e-03	9.977163e-01	0.000000e+00	0.000000e+00	2.504878e+00	1.000000e-10	1.001951e+00	1.004240e+00	1.237238e-01	0.000000e+00	0.000000e+00	2.629414e-03	-1.417517e-08	8.663978e-02	1.059263e-20	
9.685441e-01	-4.376355e-03	9.977211e-01	0.000000e+00	0.000000e+00	2.504890e+00	1.000000e-10	1.001956e+00	1.004240e+00	1.240436e-01	0.000000e+00	0.000000e+00	2.629167e-03	-1.417456e-08	8.663590e-02	1.059283e-20	
9.675022e-01	-4.518430e-03	9.977260e-01	0.000000e+00	0.000000e+00	2.504903e+00	1.000000e-10	1.001961e+00	1.004241e+00	1.243673e-01	0.000000e+00	0.000000e+00	2.628932e-03	-1.417400e-08	8.663223e-02	1.059303e-20	
9.664427e-01	-4.662704e-03	9.977309e-01	0.000000e+00	0.000000e+00	2.504916e+00	1.000000e-10	1.001966e+00	1.004241e+00	1.246950e-01	0.000000e+00	0.000000e+00	2.628710e-03	-1.417351e-08	8.662877e-02	1.059323e-20	
9.653655e-01	-4.809204e-03	9.977358e-01	0.000000e+00	0.000000e+00	2.504929e+00	1.000000e-10	1.001972e+00	1.004241e+00	1.250267e-01	0.000000e+00	0.000000e+00	2.628500e-03	-1.417307e-08	8.662550e-02	1.059344e-20	
9.642703e-01	-4.957955e-03	9.977409e-01	0.000000e+00	0.000000e+00	2.504942e+00	1.000000e-10	1.001977e+00	1.004241e+00	1.253625e-01	0.000000e+00	0.000000e+00	2.628300e-03	-1.417267e-08	8.662241e-02	1.059365e-20	
9.631568e-01	-5.108981e-03	9.977460e-01	0.000000e+00	0.000000e+00	2.504956e+00	1.000000e-10	1.001982e+00	1.004241e+00	1.257023e-01	0.000000e+00	0.000000e+00	2.628110e-03	-1.417231e-08	8.661949e-02	1.059386e-20	
9.620249e-01	-5.262310e-03	9.977511e-01	0.000000e+00	0.000000e+00	2.504969e+00	1.000000e-10	1.001988e+00	1.004242e+00	1.260462e-01	0.000000e+00	0.000000e+00	2.627931e-03	-1.417200e-08	8.661674e-02	1.059407e-20	
9.608741e-01	-5.417965e-03	9.977563e-01	0.000000e+00	0.000000e+00	2.504983e+00	1.000000e-10	1.001993e+00	1.004242e+00	1.263942e-01	0.000000e+00	0.000000e+00	2.627760e-03	-1.417172e-08	8.661413e-02	1.059428e-20	
9.597043e-01	-5.575973e-03	9.977616e-01	0.000000e+00	0.000000e+00	2.504997e+00	1.000000e-10	1.001999e+00	1.004242e+00	1.267463e-01	0.000000e+00	0.000000e+00	2.627597e-03	-1.417146e-08	8.661166e-02	1.059450e-20	
9.585152e-01	-5.736358e-03	9.977670e-01	0.000000e+00	0.000000e+00	2.505011e+00	1.000000e-10	1.002004e+00	1.004242e+00	1.271025e-01	0.000000e+00	0.000000e+00	2.627442e-03	-1.417124e-08	8.660933e-02	1.059472e-20	
9.573065e-01	-5.899146e-03	9.977724e-01	0.000000e+00	0.000000e+00	2.505025e+00	1.000000e-10	1.002010e+00	1.004243e+00	1.274628e-01	0.000000e+00	0.000000e+00	2.627294e-03	-1.417104e-08	8.660710e-02	1.059495e-20	
9.560779e-01	-6.064362e-03	9.977778e-01	0.000000e+00	0.000000e+00	2.505039e+00	1.000000e-10	1.002016e+00	1.004243e+00	1.278272e-01	0.000000e+00	0.000000e+00	2.627152e-03	-1.417087e-08	8.660499e-02	1.059517e-20	
9.548293e-01	-6.232031e-03	9.977834e-01	0.000000e+00	0.000000e+00	2.505054e+00	1.000000e-10	1.002021e+00	1.004243e+00	1.281957e-01	0.000000e+00	0.000000e+00	2.627017e-03	-1.417072e-08	8.660298e-02	1.059540e-20	
9.535602e-01	-6.402178e-03	9.977890e-01	0.000000e+00	0.000000e+00	2.505068e+00	1.000000e-10	1.002027e+00	1.004243e+00	1.285683e-01	0.000000e+00	0.000000e+00	2.626886e-03	-1.417059e-08	8.660105e-02	1.059564e-20	
9.522705e-01	-6.574827e-03	9.977946e-01	0.000000e+00	0.000000e+00	2.505083e+00	1.000000e-10	1.002033e+00	1.004244e+00	1.289451e-01	0.000000e+00	0.000000e+00	2.626760e-03	-1.417049e-08	8.659920e-02	1.059587e-20	
9.509599e-01	-6.750004e-03	9.978004e-01	0.000000e+00	0.000000e+00	2.505098e+00	1.000000e-10	1.002039e+00	1.004244e+00	1.293261e-01	0.000000e+00	0.000000e+00	2.626638e-03	-1.417041e-08	8.659742e-02	1.059611e-20	
9.496280e-01	-6.927732e-03	9.978062e-01	0.000000e+00	0.000000e+00	2.505113e+00	1.000000e-10	1.002045e+00	1.004244e+00	1.297112e-01	0.000000e+00	0.000000e+00	2.626519e-03	-1.417034e-08	8.659569e-02	1.059635e-20	
9.482747e-01	-7.108035e-03	9.978120e-01	0.000000e+00	0.000000e+00	2.505129e+00	1.000000e-10	1.002051e+00	1.004244e+00	1.301007e-01	0.000000e+00	0.000000e+00	2.626404e-03	-1.417031e-08	8.659403e-02	1.059659e-20	
9.468996e-01	-7.290938e-03	9.978179e-01	0.000000e+00	0.000000e+00	2.505144e+00	1.000000e-10	1.002058e+00	1.004245e+00	1.304943e-01	0.000000e+00	0.000000e+00	2.626289e-03	-1.417029e-08	8.659239e-02	1.059683e-20	
9.455024e-01	-7.476465e-03	9.978239e-01	0.000000e+00	0.000000e+00	2.505160e+00	1.000000e-10	1.002064e+00	1.004245e+00	1.308923e-01	0.000000e+00	0.000000e+00	2.626178e-03	-1.417029e-08	8.659079e-02	1.059708e-20	
9.440829e-01	-7.664638e-03	9.978300e-01	0.000000e+00	0.000000e+00	2.505176e+00	1.000000e-10	1.002070e+00	1.004245e+00	1.312947e-01	0.000000e+00	0.000000e+00	2.626067e-03	-1.417032e-08	8.658921e-02	1.059733e-20	
9.426407e-01	-7.855481e-03	9.978361e-01	0.000000e+00	0.000000e+00	2.505192e+00	1.000000e-10	1.002077e+00	1.004245e+00	1.317016e-01	0.000000e+00	0.000000e+00	2.625956e-03	-1.417037e-08	8.658763e-02	1.059759e-20	
9.411757e-01	-8.049017e-03	9.978423e-01	0.000000e+00	0.000000e+00	2.505208e+00	1.000000e-10	1.002083e+00	1.004246e+00	1.321130e-01	0.000000e+00	0.000000e+00	2.625846e-03	-1.417045e-08	8.658606e-02	1.059784e-20	
9.396874e-01	-8.245269e-03	9.978485e-01	0.000000e+00	0.000000e+00	2.505224e+00	1.000000e-10	1.002090e+00	1.004246e+00	1.325290e-01	0.000000e+00	0.000000e+00	2.625734e-03	-1.417055e-08	8.658448e-02	1.059810e-20	
9.381757e-01	-8.444258e-03	9.978549e-01	0.000000e+00	0.000000e+00	2.505241e+00	1.000000e-10	1.002096e+00	1.004246e+00	1.329499e-01	0.000000e+00	0.000000e+00	2.625623e-03	-1.417068e-08	8.658289e-02	1.059837e-20	
9.366402e-01	-8.646007e-03	9.978613e-01	0.000000e+00	0.000000e+00	2.505258e+00	1.000000e-10	1.002103e+00	1.004247e+00	1.333755e-01	0.000000e+00	0.000000e+00	2.625508e-03	-1.417083e-08	8.658127e-02	1.059863e-20	
9.350806e-01	-8.850537e-03	9.978678e-01	0.000000e+00	0.000000e+00	2.505275e+00	1.000000e-10	1.002110e+00	1.004247e+00	1.338061e-01	0.000000e+00	0.000000e+00	2.625393e-03	-1.417101e-08	8.657962e-02	1.059890e-20	
9.334968e-01	-9.057869e-03	9.978743e-01	0.000000e+00	0.000000e+00	2.505292e+00	1.000000e-10	1.002117e+00	1.004247e+00	1.342419e-01	0.000000e+00	0.000000e+00	2.625273e-03	-1.417121e-08	8.657792e-02	1.059917e-20	
9.318882e-01	-9.268024e-03	9.978810e-01	0.000000e+00	0.000000e+00	2.505309e+00	1.000000e-10	1.002124e+00	1.004247e+00	1.346829e-01	0.000000e+00	0.000000e+00	2.625151e-03	-1.417143e-08	8.657618e-02	1.059945e-20	
9.302548e-01	-9.481022e-03	9.978877e-01	0.000000e+00	0.000000e+00	2.505327e+00	1.000000e-10	1.002131e+00	1.004248e+00	1.351293e-01	0.000000e+00	0.000000e+00	2.625025e-03	-1.417168e-08	8.657438e-02	1.059973e-20	
9.285961e-01	-9.696883e-03	9.978945e-01	0.000000e+00	0.000000e+00	2.505345e+00	1.000000e-10	1.002138e+00	1.004248e+00	1.355813e-01	0.000000e+00	0.000000e+00	2.624895e-03	-1.417195e-08	8.657250e-02	1.060001e-20	
9.269120e-01	-9.915626e-03	9.979014e-01	0.000000e+00	0.000000e+00	2.505363e+00	1.000000e-10	1.002145e+00	1.004248e+00	1.360391e-01	0.000000e+00	0.000000e+00	2.624760e-03	-1.417224e-08	8.657056e-02	1.060030e-20	
9.252021e-01	-1.013727e-02	9.979084e-01	0.000000e+00	0.000000e+00	2.505381e+00	1.000000e-10	1.002152e+00	1.004248e+00	1.365028e-01	0.000000e+00	0.000000e+00	2.624620e-03	-1.417255e-08	8.656853e-02	1.060059e-20	
9.234661e-01	-1.036183e-02	9.979155e-01	0.000000e+00	0.000000e+00	2.505399e+00	1.000000e-10	1.002160e+00	1.004249e+00	1.369726e-01	0.000000e+00	0.000000e+00	2.624473e-03	-1.417287e-08	8.656641e-02	1.060088e-20	
9.217037e-01	-1.058933e-02	9.979227e-01	0.000000e+00	0.000000e+00	2.505418e+00	1.000000e-10	1.002167e+00	1.004249e+00	1.374487e-01	0.000000e+00	0.000000e+00	2.624321e-03	-1.417320e-08	8.656418e-02	1.060118e-20	
9.199147e-01	-1.081979e-02	9.979299e-01	0.000000e+00	0.000000e+00	2.505437e+00	1.000000e-10	1.002175e+00	1.004249e+00	1.379314e-01	0.000000e+00	0.000000e+00	2.624161e-03	-1.417355e-08	8.656184e-02	1.060148e-20	
9.180987e-01	-1.105321e-02	9.979373e-01	0.000000e+00	0.000000e+00	2.505456e+00	1.000000e-10	1.002183e+00	1.004250e+00	1.384208e-01	0.000000e+00	0.000000e+00	2.623995e-03	-1.417391e-08	8.655940e-02	1.060179e-20	
9.162555e-01	-1.128962e-02	9.979448e-01	0.000000e+00	0.000000e+00	2.505476e+00	1.000000e-10	1.002190e+00	1.004250e+00	1.389172e-01	0.000000e+00	0.000000e+00	2.623820e-03	-1.417427e-08	8.655683e-02	1.060210e-20	
9.143848e-01	-1.152903e-02	9.979524e-01	0.000000e+00	0.000000e+00	2.505496e+00	1.000000e-10	1.002198e+00	1.004250e+00	1.394207e-01	0.000000e+00	0.000000e+00	2.623638e-03	-1.417464e-08	8.655413e-02	1.060241e-20	
9.124863e-01	-1.177145e-02	9.979601e-01	0.000000e+00	0.000000e+00	2.505516e+00	1.000000e-10	1.002206e+00	1.004251e+00	1.399317e-01	0.000000e+00	0.000000e+00	2.623447e-03	-1.417500e-08	8.655129e-02	1.060273e-20	
9.105598e-01	-1.201691e-02	9.979679e-01	0.000000e+00	0.000000e+00	2.505536e+00	1.000000e-10	1.002214e+00	1.004251e+00	1.404503e-01	0.000000e+00	0.000000e+00	2.623247e-03	-1.417536e-08	8.654831e-02	1.060306e-20	
9.086049e-01	-1.226540e-02	9.979759e-01	0.000000e+00	0.000000e+00	2.505557e+00	1.000000e-10	1.002223e+00	1.004251e+00	1.409768e-01	0.000000e+00	0.000000e+00	2.623037e-03	-1.417571e-08	8.654516e-02	1.060339e-20	
9.066214e-01	-1.251695e-02	9.979839e-01	0.000000e+00	0.000000e+00	2.505578e+00	1.000000e-10	1.002231e+00	1.004252e+00	1.415114e-01	0.000000e+00	0.000000e+00	2.622817e-03	-1.417604e-08	8.654186e-02	1.060372e-20	
9.046089e-01	-1.277157e-02	9.979921e-01	0.000000e+00	0.000000e+00	2.505599e+00	1.000000e-10	1.002240e+00	1.004252e+00	1.420543e-01	0.000000e+00	0.000000e+00	2.622586e-03	-1.417636e-08	8.653839e-02	1.060406e-20	
9.025673e-01	-1.302926e-02	9.980004e-01	0.000000e+00	0.000000e+00	2.505621e+00	1.000000e-10	1.002248e+00	1.004252e+00	1.426057e-01	0.000000e+00	0.000000e+00	2.622345e-03	-1.417665e-08	8.653475e-02	1.060441e-20	
9.004963e-01	-1.329003e-02	9.980089e-01	0.000000e+00	0.000000e+00	2.505643e+00	1.000000e-10	1.002257e+00	1.004253e+00	1.431660e-01	0.000000e+00	0.000000e+00	2.622092e-03	-1.417693e-08	8.653093e-02	1.060476e-20	
8.983955e-01	-1.355390e-02	9.980175e-01	0.000000e+00	0.000000e+00	2.505666e+00	1.000000e-10	1.002266e+00	1.004253e+00	1.437354e-01	0.000000e+00	0.000000e+00	2.621828e-03	-1.417717e-08	8.652692e-02	1.060512e-20	
8.962647e-01	-1.382087e-02	9.980262e-01	0.000000e+00	0.000000e+00	2.505688e+00	1.000000e-10	1.002275e+00	1.004253e+00	1.443141e-01	0.000000e+00	0.000000e+00	2.621552e-03	-1.417738e-08	8.652273e-02	1.060548e-20	
8.941037e-01	-1.409094e-02	9.980351e-01	0.000000e+00	0.000000e+00	2.505712e+00	1.000000e-10	1.002285e+00	1.004254e+00	1.449024e-01	0.000000e+00	0.000000e+00	2.621264e-03	-1.417754e-08	8.651833e-02	1.060585e-20	
8.919122e-01	-1.436413e-02	9.980442e-01	0.000000e+00	0.000000e+00	2.505735e+00	1.000000e-10	1.002294e+00	1.004254e+00	1.455006e-01	0.000000e+00	0.000000e+00	2.620962e-03	-1.417766e-08	8.651371e-02	1.060622e-20	
8.896899e-01	-1.464044e-02	9.980533e-01	0.000000e+00	0.000000e+00	2.505759e+00	1.000000e-10	1.002304e+00	1.004254e+00	1.461088e-01	0.000000e+00	0.000000e+00	2.620646e-03	-1.417773e-08	8.650888e-02	1.060661e-20	
8.874366e-01	-1.491987e-02	9.980627e-01	0.000000e+00	0.000000e+00	2.505783e+00	1.000000e-10	1.002313e+00	1.004255e+00	1.467272e-01	0.000000e+00	0.000000e+00	2.620317e-03	-1.417774e-08	8.650383e-02	1.060700e-20	
8.851521e-01	-1.520242e-02	9.980722e-01	0.000000e+00	0.000000e+00	2.505808e+00	1.000000e-10	1.002323e+00	1.004255e+00	1.473562e-01	0.000000e+00	0.000000e+00	2.619973e-03	-1.417769e-08	8.649854e-02	1.060739e-20	
8.828360e-01	-1.548810e-02	9.980819e-01	0.000000e+00	0.000000e+00	2.505833e+00	1.000000e-10	1.002333e+00	1.004255e+00	1.479959e-01	0.000000e+00	0.000000e+00	2.619616e-03	-1.417758e-08	8.649304e-02	1.060779e-20	
8.804882e-01	-1.577690e-02	9.980917e-01	0.000000e+00	0.000000e+00	2.505859e+00	1.000000e-10	1.002344e+00	1.004256e+00	1.486473e-01	0.000000e+00	0.000000e+00	2.619256e-03	-1.417756e-08	8.648749e-02	1.060820e-20	
8.781084e-01	-1.606883e-02	9.981017e-01	0.000000e+00	0.000000e+00	2.505885e+00	1.000000e-10	1.002354e+00	1.004256e+00	1.493048e-01	0.000000e+00	0.000000e+00	2.618867e-03	-1.417702e-08	8.648149e-02	1.060862e-20	
8.756965e-01	-1.636388e-02	9.981118e-01	0.000000e+00	0.000000e+00	2.505911e+00	1.000000e-10	1.002364e+00	1.004256e+00	1.499741e-01	0.000000e+00	0.000000e+00	2.618469e-03	-1.417643e-08	8.647533e-02	1.060904e-20	
8.732520e-01	-1.666204e-02	9.981221e-01	0.000000e+00	0.000000e+00	2.505938e+00	1.000000e-10	1.002375e+00	1.004257e+00	1.506557e-01	0.000000e+00	0.000000e+00	2.618058e-03	-1.417578e-08	8.646896e-02	1.060947e-20	
8.707750e-01	-1.696332e-02	9.981326e-01	0.000000e+00	0.000000e+00	2.505965e+00	1.000000e-10	1.002386e+00	1.004257e+00	1.513494e-01	0.000000e+00	0.000000e+00	2.617622e-03	-1.417496e-08	8.646219e-02	1.060990e-20	
8.682650e-01	-1.726771e-02	9.981433e-01	0.000000e+00	0.000000e+00	2.505993e+00	1.000000e-10	1.002397e+00	1.004258e+00	1.520552e-01	0.000000e+00	0.000000e+00	2.617183e-03	-1.417416e-08	8.645537e-02	1.061035e-20	
8.657220e-01	-1.757520e-02	9.981541e-01	0.000000e+00	0.000000e+00	2.506021e+00	1.000000e-10	1.002409e+00	1.004258e+00	1.527736e-01	0.000000e+00	0.000000e+00	2.616711e-03	-1.417313e-08	8.644802e-02	1.061080e-20	
8.631457e-01	-1.788578e-02	9.981652e-01	0.000000e+00	0.000000e+00	2.506050e+00	1.000000e-10	1.002420e+00	1.004258e+00	1.535042e-01	0.000000e+00	0.000000e+00	2.616233e-03	-1.417211e-08	8.644058e-02	1.061126e-20	
8.605360e-01	-1.819944e-02	9.981765e-01	0.000000e+00	0.000000e+00	2.506080e+00	1.000000e-10	1.002432e+00	1.004259e+00	1.542477e-01	0.000000e+00	0.000000e+00	2.615733e-03	-1.417094e-08	8.643277e-02	1.061173e-20	
8.578926e-01	-1.851617e-02	9.981879e-01	0.000000e+00	0.000000e+00	2.506109e+00	1.000000e-10	1.002444e+00	1.004259e+00	1.550043e-01	0.000000e+00	0.000000e+00	2.615216e-03	-1.416969e-08	8.642470e-02	1.061221e-20	
8.552154e-01	-1.883596e-02	9.981996e-01	0.000000e+00	0.000000e+00	2.506140e+00	1.000000e-10	1.002456e+00	1.004260e+00	1.557742e-01	0.000000e+00	0.000000e+00	2.614685e-03	-1.416836e-08	8.641641e-02	1.061269e-20	
8.525041e-01	-1.915879e-02	9.982114e-01	0.000000e+00	0.000000e+00	2.506170e+00	1.000000e-10	1.002468e+00	1.004260e+00	1.565577e-01	0.000000e+00	0.000000e+00	2.614128e-03	-1.416686e-08	8.640769e-02	1.061319e-20	
8.497587e-01	-1.948464e-02	9.982235e-01	0.000000e+00	0.000000e+00	2.506202e+00	1.000000e-10	1.002481e+00	1.004260e+00	1.573550e-01	0.000000e+00	0.000000e+00	2.613564e-03	-1.416534e-08	8.639886e-02	1.061369e-20	
8.469790e-01	-1.981350e-02	9.982358e-01	0.000000e+00	0.000000e+00	2.506234e+00	1.000000e-10	1.002494e+00	1.004261e+00	1.581663e-01	0.000000e+00	0.000000e+00	2.612972e-03	-1.416362e-08	8.638957e-02	1.061420e-20	
8.441648e-01	-2.014534e-02	9.982483e-01	0.000000e+00	0.000000e+00	2.506266e+00	1.000000e-10	1.002507e+00	1.004261e+00	1.589917e-01	0.000000e+00	0.000000e+00	2.612367e-03	-1.416184e-08	8.638009e-02	1.061472e-20	
8.413160e-01	-2.048016e-02	9.982610e-01	0.000000e+00	0.000000e+00	2.506299e+00	1.000000e-10	1.002520e+00	1.004262e+00	1.598315e-01	0.000000e+00	0.000000e+00	2.611743e-03	-1.415995e-08	8.637029e-02	1.061525e-20	
8.384324e-01	-2.081791e-02	9.982740e-01	0.000000e+00	0.000000e+00	2.506333e+00	1.000000e-10	1.002533e+00	1.004262e+00	1.606859e-01	0.000000e+00	0.000000e+00	2.611099e-03	-1.415791e-08	8.636017e-02	1.061579e-20	
8.355140e-01	-2.115859e-02	9.982872e-01	0.000000e+00	0.000000e+00	2.506367e+00	1.000000e-10	1.002547e+00	1.004263e+00	1.615551e-01	0.000000e+00	0.000000e+00	2.610441e-03	-1.415581e-08	8.634983e-02	1.061634e-20	
8.325606e-01	-2.150216e-02	9.983006e-01	0.000000e+00	0.000000e+00	2.506402e+00	1.000000e-10	1.002561e+00	1.004263e+00	1.624394e-01	0.000000e+00	0.000000e+00	2.609756e-03	-1.415351e-08	8.633905e-02	1.061690e-20	
8.295722e-01	-2.184859e-02	9.983142e-01	0.000000e+00	0.000000e+00	2.506437e+00	1.000000e-10	1.002575e+00	1.004264e+00	1.633394e-01	0.000000e+00	0.000000e+00	2.609061e-03	-1.415119e-08	8.632812e-02	1.061747e-20	
8.265485e-01	-2.219786e-02	9.983281e-01	0.000000e+00	0.000000e+00	2.506474e+00	1.000000e-10	1.002589e+00	1.004264e+00	1.642545e-01	0.000000e+00	0.000000e+00	2.608338e-03	-1.414862e-08	8.631673e-02	1.061805e-20	
8.234896e-01	-2.254994e-02	9.983422e-01	0.000000e+00	0.000000e+00	2.506510e+00	1.000000e-10	1.002604e+00	1.004265e+00	1.651853e-01	0.000000e+00	0.000000e+00	2.607603e-03	-1.414597e-08	8.630513e-02	1.061864e-20	
8.203954e-01	-2.290478e-02	9.983566e-01	0.000000e+00	0.000000e+00	2.506547e+00	1.000000e-10	1.002619e+00	1.004265e+00	1.661319e-01	0.000000e+00	0.000000e+00	2.606843e-03	-1.414315e-08	8.629315e-02	1.061924e-20	
8.172658e-01	-2.326236e-02	9.983712e-01	0.000000e+00	0.000000e+00	2.506585e+00	1.000000e-10	1.002634e+00	1.004266e+00	1.670945e-01	0.000000e+00	0.000000e+00	2.606065e-03	-1.414020e-08	8.628086e-02	1.061985e-20	
8.141007e-01	-2.362264e-02	9.983861e-01	0.000000e+00	0.000000e+00	2.506624e+00	1.000000e-10	1.002650e+00	1.004266e+00	1.680732e-01	0.000000e+00	0.000000e+00	2.605269e-03	-1.413713e-08	8.626829e-02	1.062047e-20	
8.109002e-01	-2.398558e-02	9.984012e-01	0.000000e+00	0.000000e+00	2.506663e+00	1.000000e-10	1.002665e+00	1.004267e+00	1.690683e-01	0.000000e+00	0.000000e+00	2.604448e-03	-1.413387e-08	8.625532e-02	1.062110e-20	
8.076642e-01	-2.435113e-02	9.984165e-01	0.000000e+00	0.000000e+00	2.506703e+00	1.000000e-10	1.002681e+00	1.004267e+00	1.700800e-01	0.000000e+00	0.000000e+00	2.603615e-03	-1.413053e-08	8.624215e-02	1.062174e-20	
8.043927e-01	-2.471926e-02	9.984322e-01	0.000000e+00	0.000000e+00	2.506743e+00	1.000000e-10	1.002697e+00	1.004268e+00	1.711085e-01	0.000000e+00	0.000000e+00	2.602752e-03	-1.412696e-08	8.622850e-02	1.062239e-20	
8.010857e-01	-2.508992e-02	9.984480e-01	0.000000e+00	0.000000e+00	2.506785e+00	1.000000e-10	1.002714e+00	1.004268e+00	1.721540e-01	0.000000e+00	0.000000e+00	2.601878e-03	-1.412331e-08	8.621467e-02	1.062306e-20	
7.977432e-01	-2.546306e-02	9.984642e-01	0.000000e+00	0.000000e+00	2.506826e+00	1.000000e-10	1.002731e+00	1.004269e+00	1.732165e-01	0.000000e+00	0.000000e+00	2.600977e-03	-1.411945e-08	8.620040e-02	1.062373e-20	
7.943652e-01	-2.583864e-02	9.984806e-01	0.000000e+00	0.000000e+00	2.506869e+00	1.000000e-10	1.002748e+00	1.004269e+00	1.742964e-01	0.000000e+00	0.000000e+00	2.600058e-03	-1.411546e-08	8.618586e-02	1.062442e-20	
7.909518e-01	-2.621660e-02	9.984973e-01	0.000000e+00	0.000000e+00	2.506912e+00	1.000000e-10	1.002765e+00	1.004270e+00	1.753937e-01	0.000000e+00	0.000000e+00	2.599118e-03	-1.411129e-08	8.617096e-02	1.062511e-20	
7.875030e-01	-2.659689e-02	9.985142e-01	0.000000e+00	0.000000e+00	2.506956e+00	1.000000e-10	1.002782e+00	1.004270e+00	1.765088e-01	0.000000e+00	0.000000e+00	2.598159e-03	-1.410698e-08	8.615576e-02	1.062582e-20	
7.840188e-01	-2.697946e-02	9.985314e-01	0.000000e+00	0.000000e+00	2.507001e+00	1.000000e-10	1.002800e+00	1.004271e+00	1.776416e-01	0.000000e+00	0.000000e+00	2.597177e-03	-1.410247e-08	8.614017e-02	1.062654e-20	
7.804995e-01	-2.736424e-02	9.985489e-01	0.000000e+00	0.000000e+00	2.507046e+00	1.000000e-10	1.002818e+00	1.004271e+00	1.787921e-01	0.000000e+00	0.000000e+00	2.596177e-03	-1.409783e-08	8.612431e-02	1.062727e-20	
7.769449e-01	-2.775117e-02	9.985667e-01	0.000000e+00	0.000000e+00	2.507092e+00	1.000000e-10	1.002837e+00	1.004272e+00	1.799608e-01	0.000000e+00	0.000000e+00	2.595158e-03	-1.409303e-08	8.610814e-02	1.062801e-20	
7.733554e-01	-2.814021e-02	9.985847e-01	0.000000e+00	0.000000e+00	2.507139e+00	1.000000e-10	1.002855e+00	1.004272e+00	1.811479e-01	0.000000e+00	0.000000e+00	2.594119e-03	-1.408806e-08	8.609164e-02	1.062877e-20	
7.697309e-01	-2.853128e-02	9.986030e-01	0.000000e+00	0.000000e+00	2.507186e+00	1.000000e-10	1.002874e+00	1.004273e+00	1.823535e-01	0.000000e+00	0.000000e+00	2.593061e-03	-1.408293e-08	8.607484e-02	1.062953e-20	
7.660716e-01	-2.892431e-02	9.986217e-01	0.000000e+00	0.000000e+00	2.507234e+00	1.000000e-10	1.002894e+00	1.004274e+00	1.835778e-01	0.000000e+00	0.000000e+00	2.591982e-03	-1.407762e-08	8.605768e-02	1.063031e-20	
7.623778e-01	-2.931924e-02	9.986406e-01	0.000000e+00	0.000000e+00	2.507283e+00	1.000000e-10	1.002913e+00	1.004274e+00	1.848210e-01	0.000000e+00	0.000000e+00	2.590885e-03	-1.407217e-08	8.604025e-02	1.063110e-20	
7.586494e-01	-2.971599e-02	9.986598e-01	0.000000e+00	0.000000e+00	2.507333e+00	1.000000e-10	1.002933e+00	1.004275e+00	1.860833e-01	0.000000e+00	0.000000e+00	2.589763e-03	-1.406649e-08	8.602240e-02	1.063191e-20	
7.548868e-01	-3.011451e-02	9.986793e-01	0.000000e+00	0.000000e+00	2.507384e+00	1.000000e-10	1.002953e+00	1.004275e+00	1.873649e-01	0.000000e+00	0.000000e+00	2.588628e-03	-1.406070e-08	8.600434e-02	1.063272e-20	
7.510900e-01	-3.051470e-02	9.986991e-01	0.000000e+00	0.000000e+00	2.507435e+00	1.000000e-10	1.002974e+00	1.004276e+00	1.886661e-01	0.000000e+00	0.000000e+00	2.587465e-03	-1.405466e-08	8.598584e-02	1.063355e-20	