TITLE = "Visualization of the volumetric solution"
VARIABLES = "x","y","Conservative_1","Conservative_2","Conservative_3","Conservative_4","Conservative_5","Pressure","Temperature","Pressure_Coefficient","Mach","Laminar_Viscosity", "Skin_Friction_Coefficient", "Heat_Flux", "Y_Plus", "Eddy_Viscosity"
ZONE NODES= 3704, ELEMENTS= 3584, DATAPACKING=POINT, ZONETYPE=FEQUADRILATERAL
5.010000e+02	5.352203e-08	9.999954e-01	1.714407e-01	4.596521e-02	2.515749e+00	8.874557e-08	9.999987e-01	9.999989e-01	-2.357635e-04	1.500117e-01	0.000000e+00	0.000000e+00	0.000000e+00	0.000000e+00	6.225912e-09	
3.278693e+02	5.352203e-08	9.999962e-01	1.714641e-01	4.593497e-02	2.515755e+00	8.874711e-08	9.999998e-01	9.999993e-01	-1.641010e-04	1.500240e-01	0.000000e+00	0.000000e+00	0.000000e+00	0.000000e+00	6.226337e-09	
2.146849e+02	5.352203e-08	9.999965e-01	1.714700e-01	4.590860e-02	2.515755e+00	8.874988e-08	1.000000e+00	9.999994e-01	-1.393251e-04	1.500230e-01	0.000000e+00	0.000000e+00	0.000000e+00	0.000000e+00	6.227077e-09	
1.406904e+02	5.352203e-08	9.999961e-01	1.714676e-01	4.588137e-02	2.515752e+00	8.875443e-08	9.999996e-01	9.999992e-01	-1.757027e-04	1.500151e-01	0.000000e+00	0.000000e+00	0.000000e+00	0.000000e+00	6.228280e-09	
9.231638e+01	5.352203e-08	9.999960e-01	1.714613e-01	4.584414e-02	2.515749e+00	8.875842e-08	9.999994e-01	9.999991e-01	-1.889105e-04	1.500019e-01	0.000000e+00	0.000000e+00	0.000000e+00	0.000000e+00	6.229341e-09	
6.069179e+01	5.352203e-08	9.999964e-01	1.714614e-01	4.579613e-02	2.515748e+00	8.876029e-08	1.000000e+00	9.999993e-01	-1.525211e-04	1.499914e-01	0.000000e+00	0.000000e+00	0.000000e+00	0.000000e+00	6.229846e-09	
4.001717e+01	5.352203e-08	9.999970e-01	1.714949e-01	4.574398e-02	2.515753e+00	8.876857e-08	1.000001e+00	9.999995e-01	-1.033870e-04	1.500074e-01	0.000000e+00	0.000000e+00	0.000000e+00	0.000000e+00	6.232061e-09	
2.650110e+01	5.352203e-08	9.999947e-01	1.715880e-01	4.569556e-02	2.515759e+00	8.878286e-08	9.999975e-01	9.999984e-01	-3.139675e-04	1.500733e-01	0.000000e+00	0.000000e+00	0.000000e+00	0.000000e+00	6.235823e-09	
1.766495e+01	5.352203e-08	9.999833e-01	1.717152e-01	4.563426e-02	2.515737e+00	8.880773e-08	9.999809e-01	9.999932e-01	-1.367485e-03	1.501659e-01	0.000000e+00	0.000000e+00	0.000000e+00	0.000000e+00	6.242244e-09	
1.188831e+01	5.352203e-08	9.999592e-01	1.717571e-01	4.548841e-02	2.515648e+00	8.896101e-08	9.999449e-01	9.999814e-01	-3.652711e-03	1.501731e-01	0.000000e+00	0.000000e+00	0.000000e+00	0.000000e+00	6.282745e-09	
8.111817e+00	5.352203e-08	9.999274e-01	1.715654e-01	4.516231e-02	2.515478e+00	8.926026e-08	9.998960e-01	9.999643e-01	-6.754187e-03	1.499521e-01	0.000000e+00	0.000000e+00	0.000000e+00	0.000000e+00	6.362624e-09	
5.642931e+00	5.352203e-08	9.998928e-01	1.711912e-01	4.464723e-02	2.515257e+00	8.943011e-08	9.998423e-01	9.999452e-01	-1.016572e-02	1.495424e-01	0.000000e+00	0.000000e+00	0.000000e+00	0.000000e+00	6.408005e-09	
4.028892e+00	5.352203e-08	9.998510e-01	1.710224e-01	4.407800e-02	2.515048e+00	8.924720e-08	9.997800e-01	9.999247e-01	-1.412054e-02	1.492913e-01	0.000000e+00	0.000000e+00	0.000000e+00	0.000000e+00	6.357801e-09	
2.973712e+00	5.352203e-08	9.998019e-01	1.714406e-01	4.368994e-02	2.514927e+00	8.936642e-08	9.997094e-01	9.999031e-01	-1.860321e-02	1.495613e-01	0.000000e+00	0.000000e+00	0.000000e+00	0.000000e+00	6.389123e-09	
2.283886e+00	5.352203e-08	9.997282e-01	1.724940e-01	4.381503e-02	2.514849e+00	9.120310e-08	9.996031e-01	9.998706e-01	-2.535206e-02	1.504639e-01	0.000000e+00	0.000000e+00	0.000000e+00	0.000000e+00	6.898292e-09	
1.832911e+00	5.352203e-08	9.996031e-01	1.741752e-01	4.481258e-02	2.514740e+00	9.498272e-08	9.994245e-01	9.998170e-01	-3.669288e-02	1.520729e-01	0.000000e+00	0.000000e+00	0.000000e+00	0.000000e+00	8.033248e-09	
1.538086e+00	5.352203e-08	9.992582e-01	1.769713e-01	4.704425e-02	2.514133e+00	8.195564e-08	9.989417e-01	9.996790e-01	-6.734617e-02	1.549019e-01	0.000000e+00	0.000000e+00	0.000000e+00	0.000000e+00	4.586990e-09	
1.345344e+00	5.352203e-08	9.983865e-01	1.819052e-01	4.943743e-02	2.512087e+00	1.000000e-10	9.977166e-01	9.993247e-01	-1.451314e-01	1.596255e-01	0.000000e+00	0.000000e+00	0.000000e+00	0.000000e+00	1.074198e-20	
1.219338e+00	5.352203e-08	9.972990e-01	1.883505e-01	4.872576e-02	2.509379e+00	1.206497e-06	9.961612e-01	9.988548e-01	-2.438843e-01	1.649651e-01	0.000000e+00	0.000000e+00	0.000000e+00	0.000000e+00	1.196889e-06	
1.136961e+00	5.352203e-08	9.966295e-01	1.903727e-01	4.397654e-02	2.507575e+00	3.741544e-05	9.953690e-01	9.987309e-01	-2.941835e-01	1.657947e-01	0.000000e+00	0.000000e+00	0.000000e+00	0.000000e+00	3.728932e-05	
1.083108e+00	5.352203e-08	9.957023e-01	1.822254e-01	3.832610e-02	2.504831e+00	6.359807e-05	9.949675e-01	9.992577e-01	-3.196736e-01	1.581157e-01	0.000000e+00	0.000000e+00	0.000000e+00	0.000000e+00	6.332476e-05	
1.047901e+00	5.352203e-08	9.945693e-01	1.661827e-01	3.262575e-02	2.501149e+00	5.465270e-05	9.946921e-01	1.000119e+00	-3.371599e-01	1.439038e-01	0.000000e+00	0.000000e+00	0.000000e+00	0.000000e+00	5.435589e-05	
1.024884e+00	5.352203e-08	9.934201e-01	1.428356e-01	2.618876e-02	2.496874e+00	3.221314e-05	9.945041e-01	1.001087e+00	-3.490947e-01	1.234760e-01	0.000000e+00	0.000000e+00	0.000000e+00	0.000000e+00	3.200117e-05	
1.009837e+00	5.352203e-08	9.920964e-01	9.922225e-02	1.651126e-02	2.490904e+00	1.016999e-05	9.943220e-01	1.002239e+00	-3.606601e-01	8.559254e-02	0.000000e+00	0.000000e+00	0.000000e+00	0.000000e+00	1.008952e-05	
1.000000e+00	5.352203e-08	9.905367e-01	0.000000e+00	0.000000e+00	2.486976e+00	1.000000e-10	9.947903e-01	1.004290e+00	-3.309257e-01	0.000000e+00	0.000000e+00	8.886573e-05	-6.980878e-08	3.902804e+02	1.028983e-20	
9.909241e-01	-1.280290e-03	9.918846e-01	0.000000e+00	0.000000e+00	2.490785e+00	1.000000e-10	9.963139e-01	1.004461e+00	-2.341899e-01	0.000000e+00	0.000000e+00	2.504231e-03	-1.186378e-06	2.132364e+00	1.034188e-20	
9.789211e-01	-2.951446e-03	9.913482e-01	0.000000e+00	0.000000e+00	2.490487e+00	1.000000e-10	9.961947e-01	1.004884e+00	-2.417607e-01	0.000000e+00	0.000000e+00	4.818150e-03	-9.472188e-07	2.833637e+00	1.030952e-20	
9.631568e-01	-5.108981e-03	9.919842e-01	0.000000e+00	0.000000e+00	2.490907e+00	1.000000e-10	9.963628e-01	1.004410e+00	-2.310865e-01	0.000000e+00	0.000000e+00	4.777242e-03	-9.162291e-07	2.733334e+00	1.034727e-20	
9.426407e-01	-7.855481e-03	9.926866e-01	0.000000e+00	0.000000e+00	2.491644e+00	1.000000e-10	9.966578e-01	1.003996e+00	-2.123549e-01	0.000000e+00	0.000000e+00	4.174680e-03	-6.910336e-07	2.494551e+00	1.038646e-20	
9.162555e-01	-1.128962e-02	9.931939e-01	0.000000e+00	0.000000e+00	2.492488e+00	1.000000e-10	9.969954e-01	1.003823e+00	-1.909210e-01	0.000000e+00	0.000000e+00	3.808039e-03	-5.551775e-07	2.339538e+00	1.041183e-20	
8.828360e-01	-1.548810e-02	9.936468e-01	0.000000e+00	0.000000e+00	2.493468e+00	1.000000e-10	9.973871e-01	1.003760e+00	-1.660484e-01	0.000000e+00	0.000000e+00	3.692431e-03	-4.933936e-07	2.272661e+00	1.043235e-20	
8.413160e-01	-2.048016e-02	9.940549e-01	0.000000e+00	0.000000e+00	2.494513e+00	1.000000e-10	9.978052e-01	1.003768e+00	-1.395059e-01	0.000000e+00	0.000000e+00	3.613387e-03	-4.733404e-07	2.225776e+00	1.044930e-20	
7.909518e-01	-2.621660e-02	9.944032e-01	0.000000e+00	0.000000e+00	2.495538e+00	1.000000e-10	9.982154e-01	1.003829e+00	-1.134618e-01	0.000000e+00	0.000000e+00	3.479060e-03	-4.546215e-07	2.168163e+00	1.046249e-20	
7.316032e-01	-3.253806e-02	9.947392e-01	0.000000e+00	0.000000e+00	2.496561e+00	1.000000e-10	9.986245e-01	1.003902e+00	-8.748638e-02	0.000000e+00	0.000000e+00	3.328802e-03	-4.247529e-07	2.110034e+00	1.047490e-20	
6.640066e-01	-3.915032e-02	9.950829e-01	0.000000e+00	0.000000e+00	2.497607e+00	1.000000e-10	9.990428e-01	1.003975e+00	-6.092660e-02	0.000000e+00	0.000000e+00	3.212988e-03	-3.973724e-07	2.066084e+00	1.048761e-20	
5.899328e-01	-4.561861e-02	9.954383e-01	0.000000e+00	0.000000e+00	2.498708e+00	1.000000e-10	9.994832e-01	1.004059e+00	-3.296324e-02	0.000000e+00	0.000000e+00	3.173192e-03	-3.859266e-07	2.049375e+00	1.050058e-20	
5.121166e-01	-5.139795e-02	9.958513e-01	0.000000e+00	0.000000e+00	2.499935e+00	1.000000e-10	9.999740e-01	1.004136e+00	-1.805557e-03	0.000000e+00	0.000000e+00	3.248122e-03	-3.977878e-07	2.072251e+00	1.051617e-20	
4.339121e-01	-5.591460e-02	9.962570e-01	0.000000e+00	0.000000e+00	2.501252e+00	1.000000e-10	1.000501e+00	1.004255e+00	3.163368e-02	0.000000e+00	0.000000e+00	3.332534e-03	-4.177636e-07	2.100298e+00	1.053043e-20	
3.587470e-01	-5.869148e-02	9.967821e-01	0.000000e+00	0.000000e+00	2.502732e+00	1.000000e-10	1.001093e+00	1.004320e+00	6.923817e-02	0.000000e+00	0.000000e+00	3.472008e-03	-4.510761e-07	2.148054e+00	1.055107e-20	
2.895540e-01	-5.947265e-02	9.974500e-01	0.000000e+00	0.000000e+00	2.504434e+00	1.000000e-10	1.001774e+00	1.004331e+00	1.124678e-01	0.000000e+00	0.000000e+00	3.591645e-03	-4.869980e-07	2.192443e+00	1.057913e-20	
2.283666e-01	-5.828472e-02	9.982972e-01	0.000000e+00	0.000000e+00	2.506467e+00	1.000000e-10	1.002587e+00	1.004293e+00	1.640885e-01	0.000000e+00	0.000000e+00	3.648096e-03	-5.163518e-07	2.221426e+00	1.061604e-20	
1.761797e-01	-5.540400e-02	9.993903e-01	0.000000e+00	0.000000e+00	2.509099e+00	1.000000e-10	1.003640e+00	1.004248e+00	2.309368e-01	0.000000e+00	0.000000e+00	3.631271e-03	-5.323646e-07	2.233143e+00	1.066371e-20	
1.330575e-01	-5.125403e-02	1.000782e+00	0.000000e+00	0.000000e+00	2.512403e+00	1.000000e-10	1.004961e+00	1.004172e+00	3.148342e-01	0.000000e+00	0.000000e+00	3.500609e-03	-5.199805e-07	2.215598e+00	1.072511e-20	
9.838552e-02	-4.628967e-02	1.002152e+00	0.000000e+00	0.000000e+00	2.516335e+00	1.000000e-10	1.006534e+00	1.004368e+00	4.147078e-01	0.000000e+00	0.000000e+00	3.250023e-03	-4.698131e-07	2.164260e+00	1.077909e-20	
7.115831e-02	-4.091264e-02	1.004371e+00	0.000000e+00	0.000000e+00	2.520652e+00	1.000000e-10	1.008261e+00	1.003868e+00	5.243334e-01	0.000000e+00	0.000000e+00	3.238785e-03	-4.729384e-07	2.202303e+00	1.088739e-20	
5.022241e-02	-3.543267e-02	1.005703e+00	0.000000e+00	0.000000e+00	2.525358e+00	1.000000e-10	1.010143e+00	1.004411e+00	6.438543e-01	0.000000e+00	0.000000e+00	3.451924e-03	-5.582172e-07	2.328241e+00	1.093159e-20	
3.444509e-02	-3.006547e-02	1.007932e+00	0.000000e+00	0.000000e+00	2.530075e+00	1.000000e-10	1.012030e+00	1.004061e+00	7.636531e-01	0.000000e+00	0.000000e+00	3.414685e-03	-6.875847e-07	2.391753e+00	1.103772e-20	
2.280944e-02	-2.495170e-02	1.009693e+00	0.000000e+00	0.000000e+00	2.534172e+00	1.000000e-10	1.013669e+00	1.003933e+00	8.677046e-01	0.000000e+00	0.000000e+00	6.484245e-03	-2.284858e-06	3.435095e+00	1.111831e-20	
1.445220e-02	-2.018403e-02	1.009771e+00	0.000000e+00	0.000000e+00	2.540801e+00	1.000000e-10	1.016321e+00	1.006481e+00	1.036069e+00	0.000000e+00	0.000000e+00	3.997090e-03	-2.430341e-07	2.835897e+00	1.105699e-20	
8.660978e-03	-1.583433e-02	1.009838e+00	0.000000e+00	0.000000e+00	2.536675e+00	1.000000e-10	1.014670e+00	1.004780e+00	9.312615e-01	0.000000e+00	0.000000e+00	5.960130e-03	-1.292302e-06	3.705438e+00	1.110311e-20	
4.844550e-03	-1.197282e-02	1.006663e+00	0.000000e+00	0.000000e+00	2.529455e+00	1.000000e-10	1.011782e+00	1.005081e+00	7.479105e-01	0.000000e+00	0.000000e+00	6.667204e-03	-2.617730e-06	4.251184e+00	1.095657e-20	
2.493434e-03	-8.666020e-03	1.000426e+00	0.000000e+00	0.000000e+00	2.515351e+00	1.000000e-10	1.006141e+00	1.005708e+00	3.897247e-01	0.000000e+00	0.000000e+00	1.075443e-02	-9.873521e-06	5.959400e+00	1.067221e-20	
1.159193e-03	-5.950300e-03	9.921291e-01	0.000000e+00	0.000000e+00	2.492611e+00	1.000000e-10	9.970444e-01	1.004950e+00	-1.878096e-01	0.000000e+00	0.000000e+00	1.346470e-02	-1.871128e-05	7.516707e+00	1.034049e-20	
4.691284e-04	-3.805771e-03	9.797620e-01	0.000000e+00	0.000000e+00	2.457963e+00	1.000000e-10	9.831852e-01	1.003490e+00	-1.067754e+00	0.000000e+00	0.000000e+00	1.368838e-02	-1.476037e-05	8.721507e+00	9.867478e-21	
1.500786e-04	-2.161300e-03	9.771117e-01	0.000000e+00	0.000000e+00	2.453510e+00	1.000000e-10	9.814041e-01	1.004389e+00	-1.180838e+00	0.000000e+00	0.000000e+00	1.182452e-02	-1.043807e-05	9.569158e+00	9.741020e-21	
2.721276e-05	-9.231024e-04	9.788666e-01	0.000000e+00	0.000000e+00	2.457618e+00	1.000000e-10	9.830470e-01	1.004266e+00	-1.076528e+00	0.000000e+00	0.000000e+00	9.863907e-03	-9.334154e-06	1.057493e+01	9.813941e-21	
0.000000e+00	0.000000e+00	9.782281e-01	0.000000e+00	0.000000e+00	2.456317e+00	1.000000e-10	9.825267e-01	1.004390e+00	-1.109562e+00	0.000000e+00	0.000000e+00	9.374629e-03	-1.033783e-05	1.261319e+01	9.785587e-21	
2.721276e-05	9.231024e-04	9.788893e-01	0.000000e+00	0.000000e+00	2.457573e+00	1.000000e-10	9.830293e-01	1.004225e+00	-1.077652e+00	0.000000e+00	0.000000e+00	1.412383e-02	-1.112651e-05	1.265459e+01	9.815785e-21	
1.500786e-04	2.161300e-03	9.804731e-01	0.000000e+00	0.000000e+00	2.473715e+00	1.000000e-10	9.894860e-01	1.009188e+00	-6.677053e-01	0.000000e+00	0.000000e+00	2.520920e-02	-4.323081e-05	1.394498e+01	9.767924e-21	
4.691284e-04	3.805771e-03	9.683922e-01	0.000000e+00	0.000000e+00	2.428283e+00	1.000000e-10	9.713131e-01	1.003012e+00	-1.821535e+00	0.000000e+00	0.000000e+00	3.660437e-02	-1.003989e-04	1.418425e+01	9.427700e-21	
1.159193e-03	5.950300e-03	9.633072e-01	0.000000e+00	0.000000e+00	2.411285e+00	1.000000e-10	9.645142e-01	1.001249e+00	-2.253216e+00	0.000000e+00	0.000000e+00	3.519544e-02	-8.206303e-05	1.200887e+01	9.268764e-21	
2.493434e-03	8.666020e-03	9.599584e-01	0.000000e+00	0.000000e+00	2.410619e+00	1.000000e-10	9.642476e-01	1.004464e+00	-2.270140e+00	0.000000e+00	0.000000e+00	1.927501e-02	-2.501543e-05	7.822627e+00	9.073240e-21	
4.844550e-03	1.197282e-02	9.583266e-01	0.000000e+00	0.000000e+00	2.414349e+00	1.000000e-10	9.657397e-01	1.007731e+00	-2.175402e+00	0.000000e+00	0.000000e+00	1.248169e-02	-9.369931e-06	5.663845e+00	8.944541e-21	
8.660978e-03	1.583433e-02	9.614492e-01	0.000000e+00	0.000000e+00	2.424100e+00	1.000000e-10	9.696399e-01	1.008515e+00	-1.927776e+00	0.000000e+00	0.000000e+00	1.019348e-02	-5.594793e-06	4.714910e+00	9.045491e-21	
1.445220e-02	2.018403e-02	9.668387e-01	0.000000e+00	0.000000e+00	2.437465e+00	1.000000e-10	9.749860e-01	1.008422e+00	-1.588336e+00	0.000000e+00	0.000000e+00	6.628644e-03	-2.085577e-06	3.568239e+00	9.251970e-21	
2.280944e-02	2.495170e-02	9.727558e-01	0.000000e+00	0.000000e+00	2.451568e+00	1.000000e-10	9.806271e-01	1.008087e+00	-1.230174e+00	0.000000e+00	0.000000e+00	5.199019e-03	-1.862675e-06	3.009539e+00	9.487808e-21	
3.444509e-02	3.006547e-02	9.778268e-01	0.000000e+00	0.000000e+00	2.460788e+00	1.000000e-10	9.843151e-01	1.006631e+00	-9.960143e-01	0.000000e+00	0.000000e+00	2.674342e-03	1.059974e-06	2.080713e+00	9.719503e-21	
5.022241e-02	3.543267e-02	9.831723e-01	0.000000e+00	0.000000e+00	2.474423e+00	1.000000e-10	9.897693e-01	1.006706e+00	-6.497185e-01	0.000000e+00	0.000000e+00	5.308204e-03	-1.835168e-06	2.849641e+00	9.932096e-21	
7.115831e-02	4.091264e-02	9.856371e-01	0.000000e+00	0.000000e+00	2.478387e+00	1.000000e-10	9.913546e-01	1.005797e+00	-5.490636e-01	0.000000e+00	0.000000e+00	1.842475e-03	2.435065e-07	1.643078e+00	1.005297e-20	
9.838552e-02	4.628967e-02	9.869268e-01	0.000000e+00	0.000000e+00	2.481787e+00	1.000000e-10	9.927148e-01	1.005860e+00	-4.627040e-01	0.000000e+00	0.000000e+00	2.072309e-03	-2.534951e-07	1.713065e+00	1.010422e-20	
1.330575e-01	5.125403e-02	9.868311e-01	0.000000e+00	0.000000e+00	2.482574e+00	1.000000e-10	9.930294e-01	1.006277e+00	-4.427261e-01	0.000000e+00	0.000000e+00	1.770554e-03	-6.080191e-08	1.562165e+00	1.009067e-20	
1.761797e-01	5.540400e-02	9.874616e-01	0.000000e+00	0.000000e+00	2.482818e+00	1.000000e-10	9.931273e-01	1.005733e+00	-4.365142e-01	0.000000e+00	0.000000e+00	1.561120e-03	-6.724533e-08	1.453800e+00	1.012908e-20	
2.283666e-01	5.828472e-02	9.879732e-01	0.000000e+00	0.000000e+00	2.483283e+00	1.000000e-10	9.933134e-01	1.005401e+00	-4.246973e-01	0.000000e+00	0.000000e+00	1.298086e-03	-2.282333e-08	1.317120e+00	1.015782e-20	
2.895540e-01	5.947265e-02	9.885004e-01	0.000000e+00	0.000000e+00	2.483123e+00	1.000000e-10	9.932494e-01	1.004800e+00	-4.287617e-01	0.000000e+00	0.000000e+00	1.036145e-03	2.512350e-08	1.171868e+00	1.019356e-20	
3.587470e-01	5.869148e-02	9.889850e-01	0.000000e+00	0.000000e+00	2.482861e+00	1.000000e-10	9.931444e-01	1.004201e+00	-4.354282e-01	0.000000e+00	0.000000e+00	8.553068e-04	1.903837e-07	1.062062e+00	1.022760e-20	
4.339121e-01	5.591460e-02	9.883076e-01	0.000000e+00	0.000000e+00	2.481268e+00	1.000000e-10	9.925071e-01	1.004245e+00	-4.758926e-01	0.000000e+00	0.000000e+00	5.022528e-05	1.047319e-09	2.568140e-01	1.019859e-20	
5.121166e-01	5.139795e-02	9.876121e-01	0.000000e+00	0.000000e+00	2.479706e+00	1.000000e-10	9.918822e-01	1.004319e+00	-5.155651e-01	0.000000e+00	0.000000e+00	7.266490e-05	2.921482e-08	3.086195e-01	1.016817e-20	
5.899328e-01	4.561861e-02	9.875909e-01	0.000000e+00	0.000000e+00	2.479017e+00	1.000000e-10	9.916070e-01	1.004062e+00	-5.330408e-01	0.000000e+00	0.000000e+00	5.551944e-04	1.015121e-07	8.538395e-01	1.017330e-20	
6.640066e-01	3.915032e-02	9.877551e-01	0.000000e+00	0.000000e+00	2.478854e+00	1.000000e-10	9.915414e-01	1.003829e+00	-5.372020e-01	0.000000e+00	0.000000e+00	8.264574e-04	6.135302e-08	1.044112e+00	1.018551e-20	
7.316032e-01	3.253806e-02	9.882708e-01	0.000000e+00	0.000000e+00	2.480471e+00	1.000000e-10	9.921884e-01	1.003960e+00	-4.961234e-01	0.000000e+00	0.000000e+00	8.988397e-04	5.452569e-08	1.092825e+00	1.020373e-20	
7.909518e-01	2.621660e-02	9.888543e-01	0.000000e+00	0.000000e+00	2.482728e+00	1.000000e-10	9.930912e-01	1.004280e+00	-4.388051e-01	0.000000e+00	0.000000e+00	6.796150e-04	3.116817e-08	9.552731e-01	1.022034e-20	
8.413160e-01	2.048016e-02	9.893288e-01	0.000000e+00	0.000000e+00	2.484043e+00	1.000000e-10	9.936171e-01	1.004330e+00	-4.054149e-01	0.000000e+00	0.000000e+00	3.628136e-04	3.269064e-08	7.033062e-01	1.023879e-20	
8.828360e-01	1.548810e-02	9.897146e-01	0.000000e+00	0.000000e+00	2.484690e+00	1.000000e-10	9.938760e-01	1.004200e+00	-3.889746e-01	0.000000e+00	0.000000e+00	2.054612e-04	4.597816e-08	5.348548e-01	1.025783e-20	
9.162555e-01	1.128962e-02	9.899204e-01	0.000000e+00	0.000000e+00	2.485070e+00	1.000000e-10	9.940282e-01	1.004145e+00	-3.793142e-01	0.000000e+00	0.000000e+00	1.117232e-04	4.542703e-08	3.999698e-01	1.026766e-20	
9.426407e-01	7.855481e-03	9.899818e-01	0.000000e+00	0.000000e+00	2.485448e+00	1.000000e-10	9.941794e-01	1.004236e+00	-3.697146e-01	0.000000e+00	0.000000e+00	1.176649e-04	3.695521e-08	4.181500e-01	1.026807e-20	
9.631568e-01	5.108981e-03	9.898608e-01	0.000000e+00	0.000000e+00	2.485677e+00	1.000000e-10	9.942709e-01	1.004451e+00	-3.639031e-01	0.000000e+00	0.000000e+00	5.364145e-04	1.698759e-08	9.149036e-01	1.025799e-20	
9.789211e-01	2.951446e-03	9.894948e-01	0.000000e+00	0.000000e+00	2.485542e+00	1.000000e-10	9.942167e-01	1.004768e+00	-3.673461e-01	0.000000e+00	0.000000e+00	1.178567e-03	-3.837247e-08	1.400276e+00	1.023538e-20	
9.909241e-01	1.280290e-03	9.890218e-01	0.000000e+00	0.000000e+00	2.484712e+00	1.000000e-10	9.938847e-01	1.004913e+00	-3.884232e-01	0.000000e+00	0.000000e+00	2.313998e-03	-4.556761e-07	2.046107e+00	1.021244e-20	
5.010000e+02	-8.330143e-06	9.999954e-01	1.714407e-01	4.596521e-02	2.515749e+00	8.874557e-08	9.999987e-01	9.999989e-01	-2.357635e-04	1.500117e-01	0.000000e+00	0.000000e+00	0.000000e+00	0.000000e+00	6.225912e-09	
3.278693e+02	-8.330188e-06	9.999962e-01	1.714641e-01	4.593497e-02	2.515755e+00	8.874711e-08	9.999998e-01	9.999993e-01	-1.641010e-04	1.500240e-01	0.000000e+00	0.000000e+00	0.000000e+00	0.000000e+00	6.226337e-09	
2.146849e+02	-8.330258e-06	9.999965e-01	1.714700e-01	4.590860e-02	2.515755e+00	8.874988e-08	1.000000e+00	9.999994e-01	-1.393251e-04	1.500230e-01	0.000000e+00	0.000000e+00	0.000000e+00	0.000000e+00	6.227077e-09	
1.406904e+02	-8.330364e-06	9.999961e-01	1.714676e-01	4.588137e-02	2.515752e+00	8.875443e-08	9.999996e-01	9.999992e-01	-1.757027e-04	1.500151e-01	0.000000e+00	0.000000e+00	0.000000e+00	0.000000e+00	6.228280e-09	
9.231638e+01	-8.330527e-06	9.999960e-01	1.714613e-01	4.584414e-02	2.515749e+00	8.875842e-08	9.999994e-01	9.999991e-01	-1.889104e-04	1.500019e-01	0.000000e+00	0.000000e+00	0.000000e+00	0.000000e+00	6.229341e-09	
6.069179e+01	-8.330776e-06	9.999964e-01	1.714614e-01	4.579613e-02	2.515748e+00	8.876029e-08	1.000000e+00	9.999993e-01	-1.525209e-04	1.499914e-01	0.000000e+00	0.000000e+00	0.000000e+00	0.000000e+00	6.229846e-09	
4.001717e+01	-8.331157e-06	9.999970e-01	1.714949e-01	4.574398e-02	2.515753e+00	8.876857e-08	1.000001e+00	9.999995e-01	-1.033867e-04	1.500074e-01	0.000000e+00	0.000000e+00	0.000000e+00	0.000000e+00	6.232061e-09	
2.650110e+01	-8.331739e-06	9.999947e-01	1.715880e-01	4.569556e-02	2.515759e+00	8.878286e-08	9.999975e-01	9.999984e-01	-3.139670e-04	1.500733e-01	0.000000e+00	0.000000e+00	0.000000e+00	0.000000e+00	6.235823e-09	
1.766495e+01	-8.332630e-06	9.999833e-01	1.717152e-01	4.563426e-02	2.515737e+00	8.880773e-08	9.999809e-01	9.999932e-01	-1.367484e-03	1.501659e-01	0.000000e+00	0.000000e+00	0.000000e+00	0.000000e+00	6.242244e-09	
1.188831e+01	-8.333993e-06	9.999592e-01	1.717571e-01	4.548841e-02	2.515648e+00	8.896101e-08	9.999449e-01	9.999814e-01	-3.652707e-03	1.501731e-01	0.000000e+00	0.000000e+00	0.000000e+00	0.000000e+00	6.282745e-09	
8.111817e+00	-8.336078e-06	9.999274e-01	1.715654e-01	4.516231e-02	2.515478e+00	8.926025e-08	9.998960e-01	9.999643e-01	-6.754177e-03	1.499521e-01	0.000000e+00	0.000000e+00	0.000000e+00	0.000000e+00	6.362622e-09	
5.642931e+00	-8.339268e-06	9.998928e-01	1.711912e-01	4.464723e-02	2.515257e+00	8.943011e-08	9.998423e-01	9.999452e-01	-1.016570e-02	1.495424e-01	0.000000e+00	0.000000e+00	0.000000e+00	0.000000e+00	6.408004e-09	
4.028892e+00	-8.344146e-06	9.998510e-01	1.710224e-01	4.407800e-02	2.515048e+00	8.924721e-08	9.997800e-01	9.999247e-01	-1.412050e-02	1.492913e-01	0.000000e+00	0.000000e+00	0.000000e+00	0.000000e+00	6.357804e-09	
2.973712e+00	-8.351608e-06	9.998019e-01	1.714406e-01	4.368994e-02	2.514927e+00	8.936639e-08	9.997094e-01	9.999031e-01	-1.860315e-02	1.495613e-01	0.000000e+00	0.000000e+00	0.000000e+00	0.000000e+00	6.389115e-09	
2.283886e+00	-8.363023e-06	9.997282e-01	1.724940e-01	4.381501e-02	2.514849e+00	9.120253e-08	9.996031e-01	9.998706e-01	-2.535206e-02	1.504639e-01	0.000000e+00	0.000000e+00	0.000000e+00	0.000000e+00	6.898130e-09	
1.832911e+00	-8.380482e-06	9.996031e-01	1.741752e-01	4.481253e-02	2.514740e+00	9.498117e-08	9.994245e-01	9.998170e-01	-3.669322e-02	1.520729e-01	0.000000e+00	0.000000e+00	0.000000e+00	0.000000e+00	8.032756e-09	
1.538086e+00	-8.407189e-06	9.992582e-01	1.769713e-01	4.704412e-02	2.514133e+00	8.202919e-08	9.989417e-01	9.996790e-01	-6.734719e-02	1.549019e-01	0.000000e+00	0.000000e+00	0.000000e+00	0.000000e+00	4.602782e-09	
1.345344e+00	-8.448041e-06	9.983865e-01	1.819042e-01	4.943707e-02	2.512087e+00	1.000000e-10	9.977166e-01	9.993247e-01	-1.451313e-01	1.596247e-01	0.000000e+00	0.000000e+00	0.000000e+00	0.000000e+00	1.074198e-20	
1.219338e+00	-8.510530e-06	9.972990e-01	1.883491e-01	4.872522e-02	2.509379e+00	1.195536e-06	9.961613e-01	9.988549e-01	-2.438794e-01	1.649638e-01	0.000000e+00	0.000000e+00	0.000000e+00	0.000000e+00	1.185841e-06	
1.136961e+00	-8.606114e-06	9.966303e-01	1.903832e-01	4.397679e-02	2.507577e+00	3.728107e-05	9.953691e-01	9.987303e-01	-2.941749e-01	1.658033e-01	0.000000e+00	0.000000e+00	0.000000e+00	0.000000e+00	3.715543e-05	
1.083108e+00	-8.752324e-06	9.957047e-01	1.822655e-01	3.832839e-02	2.504839e+00	6.345714e-05	9.949678e-01	9.992556e-01	-3.196571e-01	1.581492e-01	0.000000e+00	0.000000e+00	0.000000e+00	0.000000e+00	6.318459e-05	
1.047901e+00	-8.975970e-06	9.945741e-01	1.662782e-01	3.263077e-02	2.501167e+00	5.450655e-05	9.946926e-01	1.000115e+00	-3.371263e-01	1.439839e-01	0.000000e+00	0.000000e+00	0.000000e+00	0.000000e+00	5.421080e-05	
1.024884e+00	-9.318067e-06	9.934291e-01	1.430661e-01	2.620051e-02	2.496910e+00	3.207506e-05	9.945052e-01	1.001079e+00	-3.490251e-01	1.236699e-01	0.000000e+00	0.000000e+00	0.000000e+00	0.000000e+00	3.186429e-05	
1.009837e+00	-9.841350e-06	9.921385e-01	9.981865e-02	1.657142e-02	2.491019e+00	1.008108e-05	9.943437e-01	1.002218e+00	-3.592844e-01	8.609880e-02	0.000000e+00	0.000000e+00	0.000000e+00	0.000000e+00	1.000174e-05	
1.000001e+00	-1.059646e-05	9.930676e-01	4.919802e-04	1.941816e-03	2.493445e+00	1.000000e-10	9.973770e-01	1.004335e+00	-1.666905e-01	1.701120e-03	0.000000e+00	0.000000e+00	0.000000e+00	0.000000e+00	1.039432e-20	
9.909255e-01	-1.290311e-03	9.919654e-01	1.321181e-02	1.833895e-03	2.490871e+00	2.900074e-08	9.963126e-01	1.004378e+00	-2.342716e-01	1.133956e-02	0.000000e+00	0.000000e+00	0.000000e+00	0.000000e+00	7.300573e-11	
9.789225e-01	-2.961055e-03	9.914710e-01	2.434686e-02	3.382137e-03	2.490942e+00	3.263904e-08	9.962549e-01	1.004821e+00	-2.379353e-01	2.090279e-02	0.000000e+00	0.000000e+00	0.000000e+00	0.000000e+00	1.166537e-10	
9.631581e-01	-5.118287e-03	9.921177e-01	2.340369e-02	3.171188e-03	2.491375e+00	3.116325e-08	9.964377e-01	1.004350e+00	-2.263294e-01	2.007540e-02	0.000000e+00	0.000000e+00	0.000000e+00	0.000000e+00	9.734654e-11	
9.426419e-01	-7.864564e-03	9.928212e-01	1.998433e-02	2.627972e-03	2.492078e+00	2.879821e-08	9.967493e-01	1.003952e+00	-2.065437e-01	1.712459e-02	0.000000e+00	0.000000e+00	0.000000e+00	0.000000e+00	7.130565e-11	
9.162567e-01	-1.129854e-02	9.933376e-01	1.791669e-02	2.266685e-03	2.492927e+00	2.716447e-08	9.971053e-01	1.003789e+00	-1.839436e-01	1.533638e-02	0.000000e+00	0.000000e+00	0.000000e+00	0.000000e+00	5.661165e-11	
8.828371e-01	-1.549690e-02	9.938284e-01	1.715582e-02	2.064644e-03	2.493998e+00	2.640833e-08	9.975393e-01	1.003730e+00	-1.563874e-01	1.466727e-02	0.000000e+00	0.000000e+00	0.000000e+00	0.000000e+00	5.068203e-11	
8.413170e-01	-2.048888e-02	9.943073e-01	1.663832e-02	1.893885e-03	2.495216e+00	2.606331e-08	9.980299e-01	1.003740e+00	-1.252365e-01	1.420721e-02	0.000000e+00	0.000000e+00	0.000000e+00	0.000000e+00	4.818006e-11	
7.909527e-01	-2.622526e-02	9.947294e-01	1.591862e-02	1.711088e-03	2.496418e+00	2.578470e-08	9.985155e-01	1.003802e+00	-9.440745e-02	1.357707e-02	0.000000e+00	0.000000e+00	0.000000e+00	0.000000e+00	4.622712e-11	
7.316040e-01	-3.254669e-02	9.951084e-01	1.516757e-02	1.527151e-03	2.497541e+00	2.549722e-08	9.989697e-01	1.003876e+00	-6.556598e-02	1.292203e-02	0.000000e+00	0.000000e+00	0.000000e+00	0.000000e+00	4.426222e-11	
6.640074e-01	-3.915893e-02	9.954592e-01	1.460544e-02	1.349462e-03	2.498600e+00	2.526113e-08	9.993969e-01	1.003951e+00	-3.844662e-02	1.242842e-02	0.000000e+00	0.000000e+00	0.000000e+00	0.000000e+00	4.270025e-11	
5.899335e-01	-4.562721e-02	9.957919e-01	1.441341e-02	1.176424e-03	2.499643e+00	2.516742e-08	9.998153e-01	1.004036e+00	-1.187990e-02	1.224899e-02	0.000000e+00	0.000000e+00	0.000000e+00	0.000000e+00	4.211893e-11	
5.121172e-01	-5.140655e-02	9.961584e-01	1.476396e-02	9.963935e-04	2.500757e+00	2.527459e-08	1.000259e+00	1.004112e+00	1.627023e-02	1.252867e-02	0.000000e+00	0.000000e+00	0.000000e+00	0.000000e+00	4.289561e-11	
4.339125e-01	-5.592321e-02	9.964958e-01	1.517608e-02	7.525153e-04	2.501905e+00	2.537523e-08	1.000716e+00	1.004230e+00	4.527883e-02	1.285985e-02	0.000000e+00	0.000000e+00	0.000000e+00	0.000000e+00	4.362918e-11	
3.587472e-01	-5.870011e-02	9.969258e-01	1.586062e-02	4.340409e-04	2.503152e+00	2.548379e-08	1.001210e+00	1.004293e+00	7.669349e-02	1.342223e-02	0.000000e+00	0.000000e+00	0.000000e+00	0.000000e+00	4.444977e-11	
2.895540e-01	-5.948131e-02	9.974738e-01	1.647700e-02	1.543130e-05	2.504557e+00	2.549725e-08	1.001769e+00	1.004301e+00	1.121342e-01	1.393092e-02	0.000000e+00	0.000000e+00	0.000000e+00	0.000000e+00	4.464069e-11	
2.283663e-01	-5.829342e-02	9.981921e-01	1.682592e-02	-5.016611e-04	2.506267e+00	2.535412e-08	1.002450e+00	1.004261e+00	1.554141e-01	1.422228e-02	0.000000e+00	0.000000e+00	0.000000e+00	0.000000e+00	4.377773e-11	
1.761791e-01	-5.541274e-02	9.991670e-01	1.685737e-02	-1.108215e-03	2.508601e+00	2.507042e-08	1.003383e+00	1.004215e+00	2.146473e-01	1.425968e-02	0.000000e+00	0.000000e+00	0.000000e+00	0.000000e+00	4.202135e-11	
1.330564e-01	-5.126281e-02	1.000455e+00	1.637543e-02	-1.766728e-03	2.511638e+00	2.450653e-08	1.004601e+00	1.004140e+00	2.919678e-01	1.388501e-02	0.000000e+00	0.000000e+00	0.000000e+00	0.000000e+00	3.857531e-11	
9.838401e-02	-4.629852e-02	1.001738e+00	1.532928e-02	-2.403477e-03	2.515342e+00	2.324342e-08	1.006089e+00	1.004339e+00	3.864406e-01	1.306279e-02	0.000000e+00	0.000000e+00	0.000000e+00	0.000000e+00	3.136953e-11	
7.115627e-02	-4.092154e-02	1.003890e+00	1.543191e-02	-3.323189e-03	2.519493e+00	2.223538e-08	1.007747e+00	1.003838e+00	4.917504e-01	1.326417e-02	0.000000e+00	0.000000e+00	0.000000e+00	0.000000e+00	2.653280e-11	
5.021973e-02	-3.544162e-02	1.005122e+00	1.658297e-02	-4.753007e-03	2.523956e+00	2.378591e-08	1.009523e+00	1.004375e+00	6.044860e-01	1.447354e-02	0.000000e+00	0.000000e+00	0.000000e+00	0.000000e+00	3.486269e-11	
3.444160e-02	-3.007446e-02	1.007249e+00	1.664442e-02	-5.919379e-03	2.528398e+00	2.633300e-08	1.011297e+00	1.004015e+00	7.171199e-01	1.479307e-02	0.000000e+00	0.000000e+00	0.000000e+00	0.000000e+00	5.283019e-11	
2.280494e-02	-2.496067e-02	1.009922e+00	3.157447e-02	-1.528574e-02	2.534954e+00	2.146652e-08	1.013738e+00	1.003774e+00	8.720928e-01	2.930136e-02	0.000000e+00	0.000000e+00	0.000000e+00	0.000000e+00	2.361379e-11	
1.444640e-02	-2.019287e-02	1.008962e+00	-1.933810e-02	1.202437e-02	2.538976e+00	2.192367e-08	1.015488e+00	1.006463e+00	9.831945e-01	1.901321e-02	0.000000e+00	0.000000e+00	0.000000e+00	0.000000e+00	2.543408e-11	
8.653545e-03	-1.584284e-02	1.010474e+00	-2.773767e-02	2.371236e-02	2.538673e+00	2.437338e-08	1.015206e+00	1.004678e+00	9.652892e-01	3.045034e-02	0.000000e+00	0.000000e+00	0.000000e+00	0.000000e+00	3.922931e-11	
4.835131e-03	-1.198070e-02	1.006742e+00	-2.856476e-02	3.384790e-02	2.530061e+00	4.566010e-08	1.011635e+00	1.004855e+00	7.385622e-01	3.709138e-02	0.000000e+00	0.000000e+00	0.000000e+00	0.000000e+00	4.717407e-10	
2.481714e-03	-8.672921e-03	1.000000e+00	-4.000132e-02	6.763487e-02	2.515011e+00	6.091040e-08	1.004770e+00	1.004765e+00	3.026783e-01	6.625315e-02	0.000000e+00	0.000000e+00	0.000000e+00	0.000000e+00	1.435039e-09	