TITLE = "Visualization of the volumetric solution"
VARIABLES = "x","y","Conservative_1","Conservative_2","Conservative_3","Conservative_4","Conservative_5","Pressure","Temperature","Pressure_Coefficient","Mach","Laminar_Viscosity", "Skin_Friction_Coefficient", "Heat_Flux", "Y_Plus", "Eddy_Viscosity"
ZONE NODES= 3704, ELEMENTS= 3584, DATAPACKING=POINT, ZONETYPE=FEQUADRILATERAL
5.010000e+02	5.352203e-08	9.999978e-01	1.747875e-01	3.081296e-02	2.515755e+00	8.875421e-08	1.000002e+00	9.999999e-01	-2.675877e-05	1.500003e-01	0.000000e+00	0.000000e+00	0.000000e+00	0.000000e+00	6.228252e-09	
3.278693e+02	5.352203e-08	9.999980e-01	1.747924e-01	3.078633e-02	2.515756e+00	8.875483e-08	1.000002e+00	1.000000e+00	-5.935270e-06	1.500004e-01	0.000000e+00	0.000000e+00	0.000000e+00	0.000000e+00	6.228422e-09	
2.146849e+02	5.352203e-08	9.999986e-01	1.747959e-01	3.075564e-02	2.515758e+00	8.875760e-08	1.000003e+00	1.000000e+00	4.536854e-05	1.499987e-01	0.000000e+00	0.000000e+00	0.000000e+00	0.000000e+00	6.229170e-09	
1.406904e+02	5.352203e-08	9.999992e-01	1.748084e-01	3.071685e-02	2.515760e+00	8.876709e-08	1.000004e+00	1.000000e+00	9.363002e-05	1.500033e-01	0.000000e+00	0.000000e+00	0.000000e+00	0.000000e+00	6.231703e-09	
9.231638e+01	5.352203e-08	9.999999e-01	1.748395e-01	3.066319e-02	2.515767e+00	8.877741e-08	1.000005e+00	1.000001e+00	1.606411e-04	1.500212e-01	0.000000e+00	0.000000e+00	0.000000e+00	0.000000e+00	6.234464e-09	
6.069179e+01	5.352203e-08	1.000001e+00	1.748832e-01	3.058357e-02	2.515776e+00	8.877868e-08	1.000007e+00	1.000001e+00	2.684518e-04	1.500458e-01	0.000000e+00	0.000000e+00	0.000000e+00	0.000000e+00	6.234825e-09	
4.001717e+01	5.352203e-08	1.000003e+00	1.749029e-01	3.046016e-02	2.515782e+00	8.880077e-08	1.000009e+00	1.000002e+00	4.194345e-04	1.500440e-01	0.000000e+00	0.000000e+00	0.000000e+00	0.000000e+00	6.240737e-09	
2.650110e+01	5.352203e-08	1.000005e+00	1.748292e-01	3.026396e-02	2.515770e+00	8.893201e-08	1.000012e+00	1.000002e+00	5.915597e-04	1.499539e-01	0.000000e+00	0.000000e+00	0.000000e+00	0.000000e+00	6.275793e-09	
1.766495e+01	5.352203e-08	1.000008e+00	1.745903e-01	2.995447e-02	2.515727e+00	8.915055e-08	1.000015e+00	1.000003e+00	8.090184e-04	1.497100e-01	0.000000e+00	0.000000e+00	0.000000e+00	0.000000e+00	6.334479e-09	
1.188831e+01	5.352203e-08	1.000013e+00	1.741878e-01	2.948943e-02	2.515654e+00	8.925094e-08	1.000019e+00	1.000002e+00	1.079501e-03	1.493080e-01	0.000000e+00	0.000000e+00	0.000000e+00	0.000000e+00	6.361650e-09	
8.111817e+00	5.352203e-08	1.000021e+00	1.737721e-01	2.883116e-02	2.515584e+00	8.908882e-08	1.000028e+00	1.000003e+00	1.645373e-03	1.488682e-01	0.000000e+00	0.000000e+00	0.000000e+00	0.000000e+00	6.318189e-09	
5.642931e+00	5.352203e-08	1.000033e+00	1.735778e-01	2.795665e-02	2.515568e+00	8.935422e-08	1.000045e+00	1.000007e+00	2.711452e-03	1.485847e-01	0.000000e+00	0.000000e+00	0.000000e+00	0.000000e+00	6.389996e-09	
4.028892e+00	5.352203e-08	1.000058e+00	1.736310e-01	2.683167e-02	2.515636e+00	9.163085e-08	1.000081e+00	1.000019e+00	5.007417e-03	1.484765e-01	0.000000e+00	0.000000e+00	0.000000e+00	0.000000e+00	7.027627e-09	
2.973712e+00	5.352203e-08	1.000103e+00	1.735982e-01	2.543560e-02	2.515755e+00	9.488341e-08	1.000146e+00	1.000039e+00	9.110925e-03	1.482653e-01	0.000000e+00	0.000000e+00	0.000000e+00	0.000000e+00	8.013065e-09	
2.283886e+00	5.352203e-08	1.000178e+00	1.730685e-01	2.379655e-02	2.515890e+00	9.019064e-08	1.000253e+00	1.000071e+00	1.591989e-02	1.476140e-01	0.000000e+00	0.000000e+00	0.000000e+00	0.000000e+00	6.621940e-09	
1.832911e+00	5.352203e-08	1.000291e+00	1.718562e-01	2.211355e-02	2.516042e+00	6.099576e-08	1.000414e+00	1.000118e+00	2.613108e-02	1.463909e-01	0.000000e+00	0.000000e+00	0.000000e+00	0.000000e+00	1.459760e-09	
1.538086e+00	5.352203e-08	1.000472e+00	1.699798e-01	2.069664e-02	2.516330e+00	6.491103e-09	1.000671e+00	1.000194e+00	4.242173e-02	1.446375e-01	0.000000e+00	0.000000e+00	0.000000e+00	0.000000e+00	1.919102e-13	
1.345344e+00	5.352203e-08	1.000682e+00	1.675393e-01	1.987533e-02	2.516665e+00	1.000000e-10	1.000977e+00	1.000290e+00	6.186961e-02	1.424712e-01	0.000000e+00	0.000000e+00	0.000000e+00	0.000000e+00	1.081699e-20	
1.219338e+00	5.352203e-08	1.000850e+00	1.642838e-01	1.982657e-02	2.516847e+00	2.540803e-07	1.001267e+00	1.000413e+00	8.029175e-02	1.397047e-01	0.000000e+00	0.000000e+00	0.000000e+00	0.000000e+00	1.626067e-07	
1.136961e+00	5.352203e-08	1.000802e+00	1.594324e-01	2.069328e-02	2.516409e+00	1.402152e-06	1.001398e+00	1.000592e+00	8.863901e-02	1.357259e-01	0.000000e+00	0.000000e+00	0.000000e+00	0.000000e+00	1.398581e-06	
1.083108e+00	5.352203e-08	1.000314e+00	1.521166e-01	2.158250e-02	2.514800e+00	3.536515e-06	1.001201e+00	1.000882e+00	7.607075e-02	1.297512e-01	0.000000e+00	0.000000e+00	0.000000e+00	0.000000e+00	3.536884e-06	
1.047901e+00	5.352203e-08	9.994586e-01	1.409335e-01	2.086279e-02	2.512273e+00	5.524020e-06	1.000848e+00	1.001385e+00	5.366175e-02	1.203901e-01	0.000000e+00	0.000000e+00	0.000000e+00	0.000000e+00	5.520724e-06	
1.024884e+00	5.352203e-08	9.983300e-01	1.234743e-01	1.780880e-02	2.508863e+00	5.716515e-06	1.000427e+00	1.002097e+00	2.698778e-02	1.055003e-01	0.000000e+00	0.000000e+00	0.000000e+00	0.000000e+00	5.706683e-06	
1.009837e+00	5.352203e-08	9.972318e-01	9.048813e-02	1.179863e-02	2.505133e+00	3.659289e-06	1.000383e+00	1.003156e+00	2.417306e-02	7.721596e-02	0.000000e+00	0.000000e+00	0.000000e+00	0.000000e+00	3.648459e-06	
1.000000e+00	5.352203e-08	9.960457e-01	0.000000e+00	0.000000e+00	2.500903e+00	1.000000e-10	1.000361e+00	1.004328e+00	2.276948e-02	0.000000e+00	0.000000e+00	8.514145e-05	-5.251157e-08	3.830644e+02	1.051974e-20	
9.909241e-01	-1.280290e-03	9.977769e-01	0.000000e+00	0.000000e+00	2.506576e+00	1.000000e-10	1.002631e+00	1.004860e+00	1.668671e-01	0.000000e+00	0.000000e+00	3.818109e-03	-5.128456e-07	2.639989e+00	1.058014e-20	
9.789211e-01	-2.951446e-03	9.977189e-01	0.000000e+00	0.000000e+00	2.505913e+00	1.000000e-10	1.002365e+00	1.004652e+00	1.500121e-01	0.000000e+00	0.000000e+00	3.736190e-03	-4.741656e-07	2.503724e+00	1.058273e-20	
9.631568e-01	-5.108981e-03	9.973722e-01	0.000000e+00	0.000000e+00	2.504156e+00	1.000000e-10	1.001662e+00	1.004297e+00	1.054005e-01	0.000000e+00	0.000000e+00	3.139435e-03	-3.574168e-07	2.221997e+00	1.057664e-20	
9.426407e-01	-7.855481e-03	9.971107e-01	0.000000e+00	0.000000e+00	2.503110e+00	1.000000e-10	1.001244e+00	1.004141e+00	7.884107e-02	0.000000e+00	0.000000e+00	2.837557e-03	-3.042811e-07	2.060965e+00	1.056934e-20	
9.162555e-01	-1.128962e-02	9.968792e-01	0.000000e+00	0.000000e+00	2.502404e+00	1.000000e-10	1.000962e+00	1.004091e+00	6.089738e-02	0.000000e+00	0.000000e+00	2.646176e-03	-2.648954e-07	1.953458e+00	1.056074e-20	
8.828360e-01	-1.548810e-02	9.967078e-01	0.000000e+00	0.000000e+00	2.501972e+00	1.000000e-10	1.000789e+00	1.004090e+00	4.993437e-02	0.000000e+00	0.000000e+00	2.602526e-03	-2.548699e-07	1.910443e+00	1.055349e-20	
8.413160e-01	-2.048016e-02	9.966205e-01	0.000000e+00	0.000000e+00	2.501779e+00	1.000000e-10	1.000711e+00	1.004101e+00	4.502177e-02	0.000000e+00	0.000000e+00	2.600741e-03	-2.534631e-07	1.890262e+00	1.054955e-20	
7.909518e-01	-2.621660e-02	9.966058e-01	0.000000e+00	0.000000e+00	2.501774e+00	1.000000e-10	1.000709e+00	1.004113e+00	4.489021e-02	0.000000e+00	0.000000e+00	2.612200e-03	-2.546167e-07	1.880400e+00	1.054862e-20	
7.316032e-01	-3.253806e-02	9.966383e-01	0.000000e+00	0.000000e+00	2.501912e+00	1.000000e-10	1.000765e+00	1.004136e+00	4.840045e-02	0.000000e+00	0.000000e+00	2.641892e-03	-2.593571e-07	1.881219e+00	1.054945e-20	
6.640066e-01	-3.915032e-02	9.967092e-01	0.000000e+00	0.000000e+00	2.502179e+00	1.000000e-10	1.000872e+00	1.004172e+00	5.518679e-02	0.000000e+00	0.000000e+00	2.690147e-03	-2.678573e-07	1.891780e+00	1.055158e-20	
5.899328e-01	-4.561861e-02	9.968411e-01	0.000000e+00	0.000000e+00	2.502609e+00	1.000000e-10	1.001044e+00	1.004212e+00	6.611234e-02	0.000000e+00	0.000000e+00	2.750648e-03	-2.789856e-07	1.909176e+00	1.055620e-20	
5.121166e-01	-5.139795e-02	9.970801e-01	0.000000e+00	0.000000e+00	2.503290e+00	1.000000e-10	1.001316e+00	1.004244e+00	8.341140e-02	0.000000e+00	0.000000e+00	2.817843e-03	-2.917696e-07	1.931151e+00	1.056554e-20	
4.339121e-01	-5.591460e-02	9.974410e-01	0.000000e+00	0.000000e+00	2.504262e+00	1.000000e-10	1.001705e+00	1.004271e+00	1.081012e-01	0.000000e+00	0.000000e+00	2.856253e-03	-2.991366e-07	1.945560e+00	1.058020e-20	
3.587470e-01	-5.869148e-02	9.979463e-01	0.000000e+00	0.000000e+00	2.505641e+00	1.000000e-10	1.002256e+00	1.004315e+00	1.431082e-01	0.000000e+00	0.000000e+00	2.881517e-03	-3.042351e-07	1.958037e+00	1.060059e-20	
2.895540e-01	-5.947265e-02	9.986193e-01	0.000000e+00	0.000000e+00	2.507463e+00	1.000000e-10	1.002985e+00	1.004368e+00	1.893938e-01	0.000000e+00	0.000000e+00	2.924938e-03	-3.142371e-07	1.979621e+00	1.062792e-20	
2.283666e-01	-5.828472e-02	9.995251e-01	0.000000e+00	0.000000e+00	2.509910e+00	1.000000e-10	1.003964e+00	1.004437e+00	2.515422e-01	0.000000e+00	0.000000e+00	2.899360e-03	-3.099514e-07	1.981385e+00	1.066484e-20	
1.761797e-01	-5.540400e-02	1.000676e+00	0.000000e+00	0.000000e+00	2.513103e+00	1.000000e-10	1.005241e+00	1.004558e+00	3.326333e-01	0.000000e+00	0.000000e+00	2.786645e-03	-2.881289e-07	1.957060e+00	1.071109e-20	
1.330575e-01	-5.125403e-02	1.002054e+00	0.000000e+00	0.000000e+00	2.516906e+00	1.000000e-10	1.006762e+00	1.004695e+00	4.292066e-01	0.000000e+00	0.000000e+00	2.590516e-03	-2.514764e-07	1.906401e+00	1.076679e-20	
9.838552e-02	-4.628967e-02	1.003599e+00	0.000000e+00	0.000000e+00	2.521215e+00	1.000000e-10	1.008486e+00	1.004865e+00	5.386505e-01	0.000000e+00	0.000000e+00	2.235251e-03	-1.901235e-07	1.795467e+00	1.082913e-20	
7.115831e-02	-4.091264e-02	1.005228e+00	0.000000e+00	0.000000e+00	2.525830e+00	1.000000e-10	1.010332e+00	1.005073e+00	6.558451e-01	0.000000e+00	0.000000e+00	1.916730e-03	-1.422694e-07	1.693368e+00	1.089442e-20	
5.022241e-02	-3.543267e-02	1.007062e+00	0.000000e+00	0.000000e+00	2.530865e+00	1.000000e-10	1.012346e+00	1.005242e+00	7.837085e-01	0.000000e+00	0.000000e+00	1.525627e-03	-9.122317e-08	1.547885e+00	1.096988e-20	
3.444509e-02	-3.006547e-02	1.008783e+00	0.000000e+00	0.000000e+00	2.535732e+00	1.000000e-10	1.014293e+00	1.005457e+00	9.073125e-01	0.000000e+00	0.000000e+00	2.719376e-03	-2.985057e-07	2.133021e+00	1.103962e-20	
2.280944e-02	-2.495170e-02	1.009782e+00	0.000000e+00	0.000000e+00	2.538928e+00	1.000000e-10	1.015571e+00	1.005729e+00	9.885048e-01	0.000000e+00	0.000000e+00	9.149787e-04	-3.637093e-08	1.288658e+00	1.107653e-20	
1.445220e-02	-2.018403e-02	1.009249e+00	0.000000e+00	0.000000e+00	2.539551e+00	1.000000e-10	1.015820e+00	1.006507e+00	1.004320e+00	0.000000e+00	0.000000e+00	2.379172e-03	-2.518294e-07	2.187310e+00	1.103346e-20	
8.660978e-03	-1.583433e-02	1.006553e+00	0.000000e+00	0.000000e+00	2.534692e+00	1.000000e-10	1.013877e+00	1.007272e+00	8.809096e-01	0.000000e+00	0.000000e+00	5.154283e-03	-1.271301e-06	3.433700e+00	1.089698e-20	
4.844550e-03	-1.197282e-02	1.001059e+00	0.000000e+00	0.000000e+00	2.521696e+00	1.000000e-10	1.008679e+00	1.007607e+00	5.508655e-01	0.000000e+00	0.000000e+00	7.514699e-03	-3.019029e-06	4.492052e+00	1.065288e-20	
2.493434e-03	-8.666020e-03	9.920063e-01	0.000000e+00	0.000000e+00	2.500691e+00	1.000000e-10	1.000276e+00	1.008332e+00	1.738471e-02	0.000000e+00	0.000000e+00	1.132832e-02	-7.778888e-06	6.078374e+00	1.025570e-20	
1.159193e-03	-5.950300e-03	9.822788e-01	0.000000e+00	0.000000e+00	2.475249e+00	1.000000e-10	9.900994e-01	1.007957e+00	-6.287580e-01	0.000000e+00	0.000000e+00	1.918991e-02	-2.542800e-05	8.908461e+00	9.867757e-21	
4.691284e-04	-3.805771e-03	9.726116e-01	0.000000e+00	0.000000e+00	2.450510e+00	1.000000e-10	9.802039e-01	1.007802e+00	-1.257044e+00	0.000000e+00	0.000000e+00	2.143085e-02	-3.559516e-05	1.083714e+01	9.488368e-21	
1.500786e-04	-2.161300e-03	9.653631e-01	0.000000e+00	0.000000e+00	2.432686e+00	1.000000e-10	9.730744e-01	1.007984e+00	-1.709709e+00	0.000000e+00	0.000000e+00	1.701321e-02	-3.070356e-05	1.137777e+01	9.204840e-21	
2.721276e-05	-9.231024e-04	9.587020e-01	0.000000e+00	0.000000e+00	2.412569e+00	1.000000e-10	9.650275e-01	1.006594e+00	-2.220625e+00	0.000000e+00	0.000000e+00	1.293634e-02	-2.059978e-05	1.196374e+01	8.981894e-21	
0.000000e+00	0.000000e+00	9.550604e-01	0.000000e+00	0.000000e+00	2.402960e+00	1.000000e-10	9.611840e-01	1.006407e+00	-2.464655e+00	0.000000e+00	0.000000e+00	1.020270e-02	-1.549755e-05	1.298170e+01	8.849971e-21	
2.721276e-05	9.231024e-04	9.511558e-01	0.000000e+00	0.000000e+00	2.393554e+00	1.000000e-10	9.574216e-01	1.006583e+00	-2.703536e+00	0.000000e+00	0.000000e+00	1.230016e-02	-1.666298e-05	1.161995e+01	8.702631e-21	
1.500786e-04	2.161300e-03	9.449500e-01	0.000000e+00	0.000000e+00	2.378521e+00	1.000000e-10	9.514084e-01	1.006830e+00	-3.085324e+00	0.000000e+00	0.000000e+00	1.672174e-02	-2.627118e-05	1.116980e+01	8.472929e-21	
4.691284e-04	3.805771e-03	9.401253e-01	0.000000e+00	0.000000e+00	2.364016e+00	1.000000e-10	9.456065e-01	1.005826e+00	-3.453702e+00	0.000000e+00	0.000000e+00	2.295147e-02	-4.172257e-05	1.104276e+01	8.320313e-21	
1.159193e-03	5.950300e-03	9.350044e-01	0.000000e+00	0.000000e+00	2.348565e+00	1.000000e-10	9.394262e-01	1.004725e+00	-3.846101e+00	0.000000e+00	0.000000e+00	2.540692e-02	-4.347293e-05	1.002542e+01	8.161071e-21	
2.493434e-03	8.666020e-03	9.314008e-01	0.000000e+00	0.000000e+00	2.339768e+00	1.000000e-10	9.359073e-01	1.004834e+00	-4.069521e+00	0.000000e+00	0.000000e+00	2.444009e-02	-3.511773e-05	8.674129e+00	8.033971e-21	
4.844550e-03	1.197282e-02	9.312943e-01	0.000000e+00	0.000000e+00	2.340066e+00	1.000000e-10	9.360265e-01	1.005077e+00	-4.061954e+00	0.000000e+00	0.000000e+00	2.304704e-02	-2.793412e-05	7.602358e+00	8.025828e-21	
8.660978e-03	1.583433e-02	9.339932e-01	0.000000e+00	0.000000e+00	2.349113e+00	1.000000e-10	9.396454e-01	1.006047e+00	-3.832184e+00	0.000000e+00	0.000000e+00	1.978743e-02	-1.883411e-05	6.486823e+00	8.101236e-21	
1.445220e-02	2.018403e-02	9.391410e-01	0.000000e+00	0.000000e+00	2.362086e+00	1.000000e-10	9.448343e-01	1.006058e+00	-3.502728e+00	0.000000e+00	0.000000e+00	1.576962e-02	-1.119401e-05	5.434046e+00	8.281124e-21	
2.280944e-02	2.495170e-02	9.449521e-01	0.000000e+00	0.000000e+00	2.376829e+00	1.000000e-10	9.507318e-01	1.006112e+00	-3.128285e+00	0.000000e+00	0.000000e+00	1.140425e-02	-5.535493e-06	4.399765e+00	8.486942e-21	
3.444509e-02	3.006547e-02	9.514515e-01	0.000000e+00	0.000000e+00	2.393622e+00	1.000000e-10	9.574486e-01	1.006299e+00	-2.701821e+00	0.000000e+00	0.000000e+00	8.058619e-03	-2.645766e-06	3.563743e+00	8.719129e-21	
5.022241e-02	3.543267e-02	9.574106e-01	0.000000e+00	0.000000e+00	2.408898e+00	1.000000e-10	9.635590e-01	1.006418e+00	-2.313858e+00	0.000000e+00	0.000000e+00	6.429316e-03	-1.627184e-06	3.095482e+00	8.937194e-21	
7.115831e-02	4.091264e-02	9.625320e-01	0.000000e+00	0.000000e+00	2.421854e+00	1.000000e-10	9.687416e-01	1.006447e+00	-1.984807e+00	0.000000e+00	0.000000e+00	5.299346e-03	-1.076913e-06	2.752338e+00	9.129348e-21	
9.838552e-02	4.628967e-02	9.669818e-01	0.000000e+00	0.000000e+00	2.433002e+00	1.000000e-10	9.732007e-01	1.006427e+00	-1.701689e+00	0.000000e+00	0.000000e+00	4.328368e-03	-7.045150e-07	2.449557e+00	9.299773e-21	
1.330575e-01	5.125403e-02	9.708947e-01	0.000000e+00	0.000000e+00	2.442600e+00	1.000000e-10	9.770402e-01	1.006325e+00	-1.457915e+00	0.000000e+00	0.000000e+00	3.460212e-03	-4.439225e-07	2.166069e+00	9.453410e-21	
1.761797e-01	5.540400e-02	9.744152e-01	0.000000e+00	0.000000e+00	2.451133e+00	1.000000e-10	9.804533e-01	1.006192e+00	-1.241212e+00	0.000000e+00	0.000000e+00	2.721798e-03	-2.720272e-07	1.906226e+00	9.594198e-21	
2.283666e-01	5.828472e-02	9.776332e-01	0.000000e+00	0.000000e+00	2.458912e+00	1.000000e-10	9.835647e-01	1.006063e+00	-1.043661e+00	0.000000e+00	0.000000e+00	2.196103e-03	-1.760496e-07	1.703318e+00	9.724447e-21	
2.895540e-01	5.947265e-02	9.804771e-01	0.000000e+00	0.000000e+00	2.465793e+00	1.000000e-10	9.863171e-01	1.005952e+00	-8.689038e-01	0.000000e+00	0.000000e+00	1.785741e-03	-1.155124e-07	1.530826e+00	9.840590e-21	
3.587470e-01	5.869148e-02	9.830809e-01	0.000000e+00	0.000000e+00	2.472119e+00	1.000000e-10	9.888475e-01	1.005861e+00	-7.082459e-01	0.000000e+00	0.000000e+00	1.444006e-03	-7.334360e-08	1.374113e+00	9.947603e-21	
4.339121e-01	5.591460e-02	9.853043e-01	0.000000e+00	0.000000e+00	2.477472e+00	1.000000e-10	9.909888e-01	1.005765e+00	-5.722915e-01	0.000000e+00	0.000000e+00	1.171909e-03	-4.320930e-08	1.237198e+00	1.004012e-20	
5.121166e-01	5.139795e-02	9.872377e-01	0.000000e+00	0.000000e+00	2.482095e+00	1.000000e-10	9.928379e-01	1.005668e+00	-4.548882e-01	0.000000e+00	0.000000e+00	8.943051e-04	-1.367225e-08	1.081369e+00	1.012140e-20	
5.899328e-01	4.561861e-02	9.889359e-01	0.000000e+00	0.000000e+00	2.485885e+00	1.000000e-10	9.943540e-01	1.005474e+00	-3.586271e-01	0.000000e+00	0.000000e+00	5.914297e-04	1.978251e-08	8.809109e-01	1.019575e-20	
6.640066e-01	3.915032e-02	9.904173e-01	0.000000e+00	0.000000e+00	2.488661e+00	1.000000e-10	9.954644e-01	1.005092e+00	-2.881288e-01	0.000000e+00	0.000000e+00	3.252914e-04	5.388041e-08	6.552972e-01	1.026598e-20	
7.316032e-01	3.253806e-02	9.915449e-01	0.000000e+00	0.000000e+00	2.490694e+00	1.000000e-10	9.962775e-01	1.004769e+00	-2.365014e-01	0.000000e+00	0.000000e+00	3.277716e-04	6.355733e-08	6.606094e-01	1.032045e-20	
7.909518e-01	2.621660e-02	9.920601e-01	0.000000e+00	0.000000e+00	2.491696e+00	1.000000e-10	9.966785e-01	1.004651e+00	-2.110410e-01	0.000000e+00	0.000000e+00	2.391029e-04	7.217486e-08	5.673724e-01	1.034471e-20	
8.413160e-01	2.048016e-02	9.923108e-01	0.000000e+00	0.000000e+00	2.492439e+00	1.000000e-10	9.969758e-01	1.004697e+00	-1.921655e-01	0.000000e+00	0.000000e+00	3.033447e-04	7.034439e-08	6.438766e-01	1.035408e-20	
8.828360e-01	1.548810e-02	9.927871e-01	0.000000e+00	0.000000e+00	2.493817e+00	1.000000e-10	9.975266e-01	1.004770e+00	-1.571911e-01	0.000000e+00	0.000000e+00	4.113434e-04	5.371493e-08	7.576303e-01	1.037224e-20	
9.162555e-01	1.128962e-02	9.933169e-01	0.000000e+00	0.000000e+00	2.495399e+00	1.000000e-10	9.981594e-01	1.004871e+00	-1.170140e-01	0.000000e+00	0.000000e+00	4.836540e-04	3.865211e-08	8.331549e-01	1.039199e-20	
9.426407e-01	7.855481e-03	9.940083e-01	0.000000e+00	0.000000e+00	2.497527e+00	1.000000e-10	9.990109e-01	1.005028e+00	-6.294953e-02	0.000000e+00	0.000000e+00	2.755905e-04	3.452019e-08	6.408538e-01	1.041718e-20	
9.631568e-01	5.108981e-03	9.943671e-01	0.000000e+00	0.000000e+00	2.498884e+00	1.000000e-10	9.995537e-01	1.005212e+00	-2.849065e-02	0.000000e+00	0.000000e+00	2.973735e-04	2.520979e-08	6.823544e-01	1.042785e-20	
9.789211e-01	2.951446e-03	9.943352e-01	0.000000e+00	0.000000e+00	2.499595e+00	1.000000e-10	9.998382e-01	1.005530e+00	-1.042725e-02	0.000000e+00	0.000000e+00	8.955202e-04	-1.145229e-08	1.222871e+00	1.041891e-20	
9.909241e-01	1.280290e-03	9.943422e-01	0.000000e+00	0.000000e+00	2.499560e+00	1.000000e-10	9.998241e-01	1.005509e+00	-1.131926e-02	0.000000e+00	0.000000e+00	1.412788e-03	-5.071869e-08	1.602332e+00	1.041971e-20	
5.010000e+02	-8.330143e-06	9.999978e-01	1.747875e-01	3.081296e-02	2.515755e+00	8.875421e-08	1.000002e+00	9.999999e-01	-2.675875e-05	1.500003e-01	0.000000e+00	0.000000e+00	0.000000e+00	0.000000e+00	6.228252e-09	
3.278693e+02	-8.330188e-06	9.999980e-01	1.747924e-01	3.078633e-02	2.515756e+00	8.875483e-08	1.000002e+00	1.000000e+00	-5.935246e-06	1.500004e-01	0.000000e+00	0.000000e+00	0.000000e+00	0.000000e+00	6.228422e-09	
2.146849e+02	-8.330258e-06	9.999986e-01	1.747959e-01	3.075564e-02	2.515758e+00	8.875760e-08	1.000003e+00	1.000000e+00	4.536858e-05	1.499987e-01	0.000000e+00	0.000000e+00	0.000000e+00	0.000000e+00	6.229170e-09	
1.406904e+02	-8.330364e-06	9.999992e-01	1.748084e-01	3.071685e-02	2.515760e+00	8.876709e-08	1.000004e+00	1.000000e+00	9.363009e-05	1.500033e-01	0.000000e+00	0.000000e+00	0.000000e+00	0.000000e+00	6.231703e-09	
9.231638e+01	-8.330527e-06	9.999999e-01	1.748395e-01	3.066319e-02	2.515767e+00	8.877741e-08	1.000005e+00	1.000001e+00	1.606412e-04	1.500212e-01	0.000000e+00	0.000000e+00	0.000000e+00	0.000000e+00	6.234464e-09	
6.069179e+01	-8.330776e-06	1.000001e+00	1.748832e-01	3.058357e-02	2.515776e+00	8.877868e-08	1.000007e+00	1.000001e+00	2.684522e-04	1.500458e-01	0.000000e+00	0.000000e+00	0.000000e+00	0.000000e+00	6.234825e-09	
4.001717e+01	-8.331157e-06	1.000003e+00	1.749029e-01	3.046016e-02	2.515782e+00	8.880077e-08	1.000009e+00	1.000002e+00	4.194353e-04	1.500440e-01	0.000000e+00	0.000000e+00	0.000000e+00	0.000000e+00	6.240737e-09	
2.650110e+01	-8.331739e-06	1.000005e+00	1.748292e-01	3.026396e-02	2.515770e+00	8.893201e-08	1.000012e+00	1.000002e+00	5.915614e-04	1.499539e-01	0.000000e+00	0.000000e+00	0.000000e+00	0.000000e+00	6.275793e-09	
1.766495e+01	-8.332630e-06	1.000008e+00	1.745903e-01	2.995447e-02	2.515727e+00	8.915055e-08	1.000015e+00	1.000003e+00	8.090222e-04	1.497100e-01	0.000000e+00	0.000000e+00	0.000000e+00	0.000000e+00	6.334479e-09	
1.188831e+01	-8.333993e-06	1.000013e+00	1.741878e-01	2.948943e-02	2.515654e+00	8.925094e-08	1.000019e+00	1.000002e+00	1.079510e-03	1.493080e-01	0.000000e+00	0.000000e+00	0.000000e+00	0.000000e+00	6.361649e-09	
8.111817e+00	-8.336078e-06	1.000021e+00	1.737721e-01	2.883116e-02	2.515584e+00	8.908883e-08	1.000028e+00	1.000003e+00	1.645393e-03	1.488682e-01	0.000000e+00	0.000000e+00	0.000000e+00	0.000000e+00	6.318191e-09	
5.642931e+00	-8.339268e-06	1.000033e+00	1.735778e-01	2.795665e-02	2.515568e+00	8.935418e-08	1.000045e+00	1.000007e+00	2.711496e-03	1.485847e-01	0.000000e+00	0.000000e+00	0.000000e+00	0.000000e+00	6.389985e-09	
4.028892e+00	-8.344146e-06	1.000058e+00	1.736310e-01	2.683167e-02	2.515636e+00	9.163060e-08	1.000081e+00	1.000019e+00	5.007505e-03	1.484765e-01	0.000000e+00	0.000000e+00	0.000000e+00	0.000000e+00	7.027553e-09	
2.973712e+00	-8.351608e-06	1.000103e+00	1.735982e-01	2.543560e-02	2.515755e+00	9.488297e-08	1.000146e+00	1.000039e+00	9.111089e-03	1.482653e-01	0.000000e+00	0.000000e+00	0.000000e+00	0.000000e+00	8.012925e-09	
2.283886e+00	-8.363023e-06	1.000178e+00	1.730685e-01	2.379656e-02	2.515890e+00	9.019206e-08	1.000253e+00	1.000071e+00	1.592016e-02	1.476140e-01	0.000000e+00	0.000000e+00	0.000000e+00	0.000000e+00	6.622335e-09	
1.832911e+00	-8.380482e-06	1.000291e+00	1.718563e-01	2.211359e-02	2.516042e+00	6.100745e-08	1.000414e+00	1.000118e+00	2.613145e-02	1.463909e-01	0.000000e+00	0.000000e+00	0.000000e+00	0.000000e+00	1.460860e-09	
1.538086e+00	-8.407189e-06	1.000472e+00	1.699798e-01	2.069671e-02	2.516330e+00	6.524725e-09	1.000671e+00	1.000194e+00	4.242212e-02	1.446376e-01	0.000000e+00	0.000000e+00	0.000000e+00	0.000000e+00	1.959173e-13	
1.345344e+00	-8.448041e-06	1.000682e+00	1.675393e-01	1.987546e-02	2.516665e+00	1.000000e-10	1.000977e+00	1.000290e+00	6.186978e-02	1.424713e-01	0.000000e+00	0.000000e+00	0.000000e+00	0.000000e+00	1.081699e-20	
1.219338e+00	-8.510530e-06	1.000850e+00	1.642852e-01	1.982688e-02	2.516847e+00	2.537002e-07	1.001267e+00	1.000413e+00	8.029081e-02	1.397060e-01	0.000000e+00	0.000000e+00	0.000000e+00	0.000000e+00	1.621004e-07	
1.136961e+00	-8.606114e-06	1.000802e+00	1.594381e-01	2.069400e-02	2.516410e+00	1.400103e-06	1.001398e+00	1.000592e+00	8.863597e-02	1.357308e-01	0.000000e+00	0.000000e+00	0.000000e+00	0.000000e+00	1.396517e-06	
1.083108e+00	-8.752324e-06	1.000315e+00	1.521334e-01	2.158419e-02	2.514803e+00	3.531426e-06	1.001200e+00	1.000881e+00	7.606648e-02	1.297655e-01	0.000000e+00	0.000000e+00	0.000000e+00	0.000000e+00	3.531794e-06	
1.047901e+00	-8.975970e-06	9.994605e-01	1.409891e-01	2.086677e-02	2.512281e+00	5.514112e-06	1.000847e+00	1.001383e+00	5.365401e-02	1.204370e-01	0.000000e+00	0.000000e+00	0.000000e+00	0.000000e+00	5.510831e-06	
1.024884e+00	-9.318067e-06	9.983348e-01	1.236549e-01	1.781877e-02	2.508884e+00	5.704296e-06	1.000427e+00	1.002091e+00	2.695377e-02	1.056524e-01	0.000000e+00	0.000000e+00	0.000000e+00	0.000000e+00	5.694510e-06	
1.009837e+00	-9.841350e-06	9.972652e-01	9.120994e-02	1.185499e-02	2.505229e+00	3.657579e-06	1.000395e+00	1.003134e+00	2.492805e-02	7.782601e-02	0.000000e+00	0.000000e+00	0.000000e+00	0.000000e+00	3.646875e-06	
1.000001e+00	-1.059646e-05	9.978425e-01	3.136670e-04	1.290002e-03	2.505022e+00	1.200159e-08	1.002008e+00	1.004171e+00	1.273587e-01	1.122104e-03	0.000000e+00	0.000000e+00	0.000000e+00	0.000000e+00	2.198711e-12	
9.909255e-01	-1.290311e-03	9.963766e-01	2.028480e-02	2.394272e-03	2.503178e+00	2.679649e-08	1.001188e+00	1.004824e+00	7.525287e-02	1.728389e-02	0.000000e+00	0.000000e+00	0.000000e+00	0.000000e+00	5.413998e-11	
9.789225e-01	-2.961055e-03	9.965819e-01	1.904044e-02	2.199482e-03	2.503162e+00	2.682484e-08	1.001191e+00	1.004621e+00	7.546559e-02	1.621722e-02	0.000000e+00	0.000000e+00	0.000000e+00	0.000000e+00	5.443922e-11	
9.631581e-01	-5.118287e-03	9.969505e-01	1.549443e-02	1.811985e-03	2.503162e+00	2.532415e-08	1.001216e+00	1.004274e+00	7.704023e-02	1.319655e-02	0.000000e+00	0.000000e+00	0.000000e+00	0.000000e+00	4.335401e-11	
9.426419e-01	-7.864564e-03	9.970141e-01	1.365982e-02	1.637910e-03	2.502915e+00	2.398000e-08	1.001128e+00	1.004122e+00	7.146263e-02	1.163818e-02	0.000000e+00	0.000000e+00	0.000000e+00	0.000000e+00	3.488681e-11	
9.162567e-01	-1.129854e-02	9.969090e-01	1.249794e-02	1.536699e-03	2.502517e+00	2.310720e-08	1.000975e+00	1.004074e+00	6.175280e-02	1.065353e-02	0.000000e+00	0.000000e+00	0.000000e+00	0.000000e+00	3.007358e-11	
8.828371e-01	-1.549690e-02	9.967643e-01	1.212090e-02	1.488953e-03	2.502150e+00	2.274083e-08	1.000830e+00	1.004075e+00	5.255013e-02	1.033348e-02	0.000000e+00	0.000000e+00	0.000000e+00	0.000000e+00	2.819650e-11	
8.413170e-01	-2.048888e-02	9.966712e-01	1.199375e-02	1.427200e-03	2.501941e+00	2.249743e-08	1.000747e+00	1.004085e+00	4.728323e-02	1.022130e-02	0.000000e+00	0.000000e+00	0.000000e+00	0.000000e+00	2.699891e-11	
7.909527e-01	-2.622526e-02	9.966463e-01	1.196575e-02	1.350241e-03	2.501910e+00	2.233547e-08	1.000735e+00	1.004098e+00	4.649553e-02	1.019045e-02	0.000000e+00	0.000000e+00	0.000000e+00	0.000000e+00	2.622709e-11	
7.316040e-01	-3.254669e-02	9.966707e-01	1.204911e-02	1.266007e-03	2.502028e+00	2.229767e-08	1.000782e+00	1.004120e+00	4.948052e-02	1.025250e-02	0.000000e+00	0.000000e+00	0.000000e+00	0.000000e+00	2.605135e-11	
6.640074e-01	-3.915893e-02	9.967368e-01	1.223900e-02	1.170149e-03	2.502284e+00	2.238192e-08	1.000883e+00	1.004156e+00	5.593049e-02	1.040341e-02	0.000000e+00	0.000000e+00	0.000000e+00	0.000000e+00	2.645183e-11	
5.899335e-01	-4.562721e-02	9.968671e-01	1.250387e-02	1.049102e-03	2.502712e+00	2.255677e-08	1.001053e+00	1.004195e+00	6.671646e-02	1.061589e-02	0.000000e+00	0.000000e+00	0.000000e+00	0.000000e+00	2.729917e-11	
5.121172e-01	-5.140655e-02	9.971079e-01	1.281792e-02	8.863126e-04	2.503400e+00	2.278390e-08	1.001327e+00	1.004227e+00	8.408193e-02	1.086752e-02	0.000000e+00	0.000000e+00	0.000000e+00	0.000000e+00	2.843975e-11	
4.339125e-01	-5.592321e-02	9.974720e-01	1.301917e-02	6.573277e-04	2.504381e+00	2.296325e-08	1.001718e+00	1.004253e+00	1.089446e-01	1.102171e-02	0.000000e+00	0.000000e+00	0.000000e+00	0.000000e+00	2.938610e-11	
3.587472e-01	-5.870011e-02	9.979820e-01	1.317722e-02	3.590801e-04	2.505772e+00	2.309283e-08	1.002274e+00	1.004296e+00	1.442327e-01	1.113951e-02	0.000000e+00	0.000000e+00	0.000000e+00	0.000000e+00	3.011278e-11	
2.895540e-01	-5.948131e-02	9.986368e-01	1.343365e-02	-3.905606e-06	2.507551e+00	2.317590e-08	1.002984e+00	1.004349e+00	1.893154e-01	1.134434e-02	0.000000e+00	0.000000e+00	0.000000e+00	0.000000e+00	3.062446e-11	
2.283663e-01	-5.829342e-02	9.995426e-01	1.338776e-02	-4.403385e-04	2.509997e+00	2.312810e-08	1.003963e+00	1.004418e+00	2.514697e-01	1.130106e-02	0.000000e+00	0.000000e+00	0.000000e+00	0.000000e+00	3.047828e-11	
1.761791e-01	-5.541274e-02	1.000694e+00	1.294839e-02	-9.167165e-04	2.513188e+00	2.281593e-08	1.005241e+00	1.004540e+00	3.326299e-01	1.093835e-02	0.000000e+00	0.000000e+00	0.000000e+00	0.000000e+00	2.899226e-11	
1.330564e-01	-5.126281e-02	1.002067e+00	1.212413e-02	-1.384574e-03	2.516975e+00	2.213999e-08	1.006760e+00	1.004679e+00	4.290793e-01	1.026807e-02	0.000000e+00	0.000000e+00	0.000000e+00	0.000000e+00	2.584213e-11	
9.838401e-02	-4.629852e-02	1.003604e+00	1.054604e-02	-1.731877e-03	2.521256e+00	2.068807e-08	1.008479e+00	1.004853e+00	5.382240e-01	8.978196e-03	0.000000e+00	0.000000e+00	0.000000e+00	0.000000e+00	1.981891e-11	
7.115627e-02	-4.092154e-02	1.005227e+00	9.122090e-03	-2.032206e-03	2.525848e+00	1.890292e-08	1.010322e+00	1.005064e+00	6.552063e-01	7.837662e-03	0.000000e+00	0.000000e+00	0.000000e+00	0.000000e+00	1.389981e-11	
5.021973e-02	-3.544162e-02	1.007047e+00	7.327333e-03	-2.141645e-03	2.530842e+00	1.714006e-08	1.012325e+00	1.005237e+00	7.823888e-01	6.389952e-03	0.000000e+00	0.000000e+00	0.000000e+00	0.000000e+00	9.462236e-12	
3.444160e-02	-3.007446e-02	1.008816e+00	1.315529e-02	-4.999569e-03	2.535862e+00	1.553076e-08	1.014306e+00	1.005437e+00	9.081426e-01	1.175820e-02	0.000000e+00	0.000000e+00	0.000000e+00	0.000000e+00	6.421312e-12	
2.280494e-02	-2.496067e-02	1.009744e+00	-4.431759e-03	2.188128e-03	2.538840e+00	3.688187e-09	1.015531e+00	1.005726e+00	9.859386e-01	4.125068e-03	0.000000e+00	0.000000e+00	0.000000e+00	0.000000e+00	2.049230e-14	
1.444640e-02	-2.019287e-02	1.009277e+00	-1.136373e-02	7.396943e-03	2.539666e+00	2.158639e-08	1.015830e+00	1.006489e+00	1.004915e+00	1.131752e-02	0.000000e+00	0.000000e+00	0.000000e+00	0.000000e+00	2.393433e-11	
8.653545e-03	-1.584284e-02	1.006713e+00	-2.375397e-02	2.050913e-02	2.535331e+00	3.202891e-08	1.013937e+00	1.007171e+00	8.847182e-01	2.625236e-02	0.000000e+00	0.000000e+00	0.000000e+00	0.000000e+00	1.143687e-10	
4.835131e-03	-1.198070e-02	1.001359e+00	-3.203738e-02	3.780692e-02	2.523027e+00	4.531730e-08	1.008720e+00	1.007347e+00	5.535234e-01	4.167238e-02	0.000000e+00	0.000000e+00	0.000000e+00	0.000000e+00	4.456707e-10	
2.481714e-03	-8.672921e-03	9.927071e-01	-4.223267e-02	7.027676e-02	2.504004e+00	6.186500e-08	1.000247e+00	1.007591e+00	1.554705e-02	6.953998e-02	0.000000e+00	0.000000e+00	0.000000e+00	0.000000e+00	1.472872e-09	